-1.649761999999999951e+00 -3.258929999999999882e-01 2.083638999999999797e+00 1.096850000000000047e-01 -4.352309999999999790e-01 9.790309999999999846e-01 6.391289999999999472e-01 4.318480000000000096e-01 -2.373930999999999791e+00 4.812799999999999717e-02 1.038332000000000033e+00 -3.284199999999999897e-01 2.154358999999999913e+00 2.636318999999999857e+00 2.239762999999999948e+00 -4.831059999999999799e-01 5.403540000000000010e-01 1.259881999999999946e+00 1.078530999999999906e+00 -6.210700000000000109e-01 -1.323755999999999933e+00 1.755389000000000088e+00 -1.652269999999999905e+00 -1.691704000000000097e+00 -9.824900000000000300e-02 -2.173808000000000185e+00 -7.484659999999999647e-01 -1.611070000000000002e-01 -4.842817000000000149e+00 5.129249999999999643e-01 -1.712808000000000108e+00 -5.740950000000000220e-01 -1.499800000000000022e-01 4.302679999999999838e-01 2.188655999999999935e+00 7.078140000000000542e-01 -4.348870000000000235e-01 2.982581000000000149e+00 -2.034113000000000060e+00 -8.821250000000000480e-01 -1.923497000000000012e+00 -5.615539999999999976e-01 -2.286630000000000051e-01 1.173109999999999986e-01 1.975310000000000121e-01 -5.518279999999999852e-01 2.324821000000000026e+00 3.322674000000000127e+00 -7.319059999999999455e-01 -1.854238000000000053e+00 -1.963676999999999895e+00 -3.124040000000000150e-01 -1.962939999999999963e-01 -1.391742999999999952e+00 8.397529999999999717e-01 2.885759999999999992e-01 3.389618000000000020e+00 -1.340729999999999977e-01 -1.607299999999999951e+00 -1.291170000000000095e-01 -1.247111000000000081e+00 1.936100000000000043e-01 9.325300000000000256e-02 1.881000000000000076e-03 1.357838000000000100e+00 1.076399999999999926e-02 -3.153000000000000247e-02 1.975319000000000047e+00 -4.918390000000000262e-01 -1.046229999999999938e-01 -3.327332999999999874e+00 -3.283599999999999852e-01 -1.040124999999999966e+00 -1.626489000000000074e+00 -4.211320000000000063e-01 -3.434320000000000150e-01 -3.358400000000000052e+00 4.793878000000000306e+00 1.510950000000000071e-01 7.585439999999999960e-01 6.720779999999999532e-01 -3.456300000000000344e-02 1.259352000000000027e+00 -3.689169999999999949e-01 -3.777349999999999874e-01 -1.945982000000000101e+00 5.885420000000000096e-01 -3.560840000000000116e-01 -7.994300000000000017e-02 -1.051514000000000060e+00 2.802601999999999816e+00 -5.812450000000000117e-01 1.525028999999999968e+00 -4.673900000000000277e-02 -1.576270000000000060e+00 -1.186747999999999914e+00 4.583570000000000144e-01 1.567253999999999925e+00 8.111859999999999626e-01 -2.343091999999999953e+00 -1.514300000000000090e-01 4.446720000000000117e-01 -1.239490000000000036e-01 -1.057600000000000096e+00 3.363070000000000226e-01 -7.771789999999999532e-01 7.250969999999999915e-01 -3.030610000000000248e-01 2.971110000000000140e-01 -3.920509999999999828e-01 1.054705000000000004e+00 -1.903947000000000056e+00 -4.216999999999999915e-02 1.114929999999999949e-01 3.337368000000000112e+00 -2.314544000000000157e+00 9.611730000000000551e-01 -5.588269999999999627e-01 1.051098000000000088e+00 6.341919999999999780e-01 -7.893550000000000288e-01 4.668410000000000060e-01 -6.189189999999999969e-01 3.348723999999999812e+00 2.443630999999999887e+00 -1.516261000000000081e+00 1.223252000000000006e+00 9.580700000000000327e-02 -6.117000000000000041e-03 1.431940999999999908e+00 1.627480000000000038e-01 -1.768750000000000044e-01 6.625199999999999978e-01 -4.632899999999999796e-01 -1.649299999999999933e-01 3.035220000000000140e-01 1.435605000000000020e+00 4.957110000000000127e-01 3.027449999999999863e-01 -1.879250000000000087e-01 -1.991489999999999927e-01 2.605779999999999763e-01 2.056751999999999914e+00 1.341849999999999987e-01 -1.223468000000000000e+00 9.263609999999999900e-01 -1.296782000000000101e+00 -2.302200000000000080e-01 2.909309999999999952e-01 8.972999999999999865e-01 5.552740000000000453e-01 -6.149189999999999934e-01 -9.312909999999999799e-01 -3.256658999999999970e+00 2.030114000000000196e+00 -1.717178000000000093e+00 5.820490000000000386e-01 2.972150000000000070e-01 6.502609999999999779e-01 -3.339420000000000166e-01 1.251150999999999902e+00 -1.086824999999999930e+00 6.072030000000000483e-01 2.661919999999999842e-01 -6.149000000000000299e-02 1.892964000000000091e+00 7.199050000000000171e-01 -7.142800000000000260e-01 1.388412999999999897e+00 -7.197000000000000619e-02 1.415601000000000109e+00 1.402339999999999975e-01 -3.792719999999999980e-01 -5.284510000000000041e-01 1.924247000000000041e+00 7.409200000000000508e-02 -1.980185000000000084e+00 -2.891619999999999746e-01 -7.234230000000000382e-01 -8.144719999999999738e-01 1.806543999999999928e+00 9.237859999999999960e-01 8.330509999999999859e-01 1.827984999999999971e+00 7.647479999999999833e-01 -2.361790000000000000e-01 -2.985349999999999948e-01 4.115349999999999842e-01 -9.744399999999999729e-01 1.306440999999999963e+00 2.644700999999999969e+00 -2.566930999999999852e+00 -1.341050000000000020e-01 7.262100000000000222e-01 8.838400000000000423e-02 1.095280000000000031e+00 -9.415940000000000420e-01 9.322970000000000423e-01 -6.834010000000000362e-01 -1.350019999999999998e+00 -2.043310000000000126e-01 -2.244690000000000019e-01 -4.194129999999999803e-01 -7.080279999999999907e-01 -6.093709999999999960e-01 6.568300000000000249e-01 -3.266890000000000072e-01 -1.161021999999999998e+00 -2.355130000000000001e-01 -1.610584999999999933e+00 1.430412000000000017e+00 -5.071099999999999497e-01 2.270293999999999812e+00 -6.549249999999999794e-01 -2.406240000000000046e-01 8.479499999999999815e-01 6.717290000000000205e-01 -3.412720000000000198e-01 1.380463999999999913e+00 -1.169826000000000032e+00 2.032300000000000079e-02 -3.956599999999999701e-02 -2.080343000000000053e+00 -1.105437999999999921e+00 -2.348770000000000024e-01 -8.163000000000000117e-03 -1.365939999999999932e-01 -1.357148000000000021e+00 -3.394610999999999823e+00 -8.819770000000000110e-01 1.475100000000000022e-02 -4.551470000000000238e-01 -5.440939999999999666e-01 1.032351000000000019e+00 8.576979999999999604e-01 -9.508910000000000418e-01 -2.386830000000000063e-01 1.754593000000000069e+00 -1.049903000000000031e+00 -2.020579000000000125e+00 4.239530000000000243e-01 2.325029999999999875e-01 -3.479289999999999883e-01 1.082819999999999894e+00 -4.772089999999999943e-01 -8.070330000000000004e-01 -1.514672000000000018e+00 1.455929999999999946e+00 -1.262230000000000019e-01 1.791031000000000040e+00 -1.530175000000000063e+00 5.351879999999999971e-01 -2.240403999999999840e+00 6.109099999999999531e-01 -1.072657999999999889e+00 -2.256768000000000107e+00 1.974315000000000042e+00 1.126835999999999949e+00 4.039849999999999830e-01 4.382480000000000264e-01 2.087365999999999833e+00 2.667539999999999911e-01 -4.278819999999999846e-01 -4.741099999999999759e-01 -8.880499999999999505e-02 6.476950000000000207e-01 6.150499999999999717e-02 -1.561128000000000071e+00 8.163939999999999531e-01 -2.568677999999999795e+00 -2.159981000000000151e+00 -7.147040000000000060e-01 5.413609999999999811e-01 3.127579999999999805e-01 6.472989999999999577e-01 2.936300000000000021e-01 9.609860000000000069e-01 1.503627999999999965e+00 5.506520000000000303e-01 -1.231954999999999911e+00 -1.474131000000000080e+00 1.656619999999999981e+00
1.569646000000000097e+00 -9.049200000000000299e-02 -1.711192999999999964e+00 1.018739000000000061e+00 2.002220000000000111e-01 -3.362280000000000268e-01 -2.339569999999999983e-01 2.024150000000000116e-01 -4.334299999999999958e-02 3.736479999999999801e-01 1.073642999999999903e+00 1.116541999999999923e+00 1.155399000000000065e+00 -1.421499000000000068e+00 -1.453832999999999931e+00 2.368409000000000209e+00 -5.934519999999999795e-01 5.552040000000000308e-01 -4.747020000000000128e-01 2.806300000000000114e-02 6.214819999999999789e-01 2.640330000000000177e-01 -9.807360000000000522e-01 -7.397080000000000322e-01 5.655670000000000419e-01 4.775320000000000120e-01 -3.324570000000000025e-01 1.378095000000000070e+00 -1.120973999999999915e+00 7.674400000000000666e-02 -3.918260000000000076e-01 1.060449999999999893e+00 5.797130000000000338e-01 5.538800000000000390e-01 1.187486999999999959e+00 -3.629990000000000161e-01 -1.024440000000000017e+00 8.228379999999999583e-01 6.718950000000000200e-01 -2.511100000000000138e-02 1.008491000000000026e+00 3.288980000000000237e-01 8.388980000000000325e-01 -1.470869999999999955e-01 4.304100000000000148e-01 -7.787910000000000110e-01 4.974489999999999745e-01 7.940629999999999633e-01 1.979710000000000081e-01 -2.154669999999999919e-01 -2.312800000000000133e-01 2.836350000000000260e-01 -8.040230000000000432e-01 1.149262000000000006e+00 9.946420000000000261e-01 -7.240180000000000504e-01 -1.019430000000000058e+00 4.323029999999999928e-01 2.675540000000000140e-01 -1.639839999999999909e-01 -1.270521999999999929e+00 -1.062048000000000103e+00 -4.485720000000000263e-01 3.749649999999999928e-01 3.389500000000000152e-02 -4.546060000000000101e-01 -1.686806999999999945e+00 -3.125370000000000092e-01 -6.340599999999999570e-01 1.773220000000000074e-01 -2.572770999999999919e+00 -5.899739999999999984e-01 -6.350559999999999539e-01 8.193179999999999907e-01 -2.131939999999999946e-01 4.373380000000000045e-01 4.593220000000000081e-01 4.391100000000000003e-01 -1.103215999999999974e+00 2.088049999999999962e+00 1.298120000000000107e-01 -2.283499999999999974e-01 -5.864399999999999613e-01 9.848449999999999704e-01 1.078759000000000023e+00 -1.205559000000000047e+00 -4.062899999999999845e-02 -2.977509999999999879e-01 5.775759999999999783e-01 -7.193540000000000489e-01 6.485919999999999463e-01 -1.674501000000000017e+00 7.999150000000000427e-01 -1.061148999999999898e+00 1.185049000000000019e+00 8.731349999999999945e-01 -1.182361999999999913e+00 1.847428999999999988e+00 -1.164049999999999946e-01 -3.969210000000000238e-01 1.017419999999999991e+00 1.021441999999999961e+00 2.590609999999999857e-01 -1.253730000000000122e-01 -1.215940999999999939e+00 -6.884409999999999696e-01 7.408050000000000468e-01 9.679069999999999618e-01 -5.181710000000000482e-01 1.845569999999999933e+00 -7.328249999999999487e-01 -5.618269999999999653e-01 -3.237570000000000170e-01 -1.637184999999999890e+00 2.532619999999999871e-01 -1.607840000000000102e-01 1.221619999999999928e+00 -1.613100999999999896e+00 -2.934309999999999974e-01 -6.965259999999999785e-01 9.270329999999999959e-01 3.157849999999999824e-01 8.295199999999999796e-02 -2.043327000000000115e+00 -8.119450000000000278e-01 -2.996650000000000147e-01 -4.783220000000000249e-01 1.122520000000000046e-01 -4.010380000000000056e-01 -1.655530000000000057e-01 -2.917000000000000148e-02 -1.442350000000000021e-01 -1.702496999999999927e+00 -2.060389999999999999e-01 -8.404460000000000264e-01 -1.346047999999999911e+00 -3.000880000000000214e-01 3.354110000000000147e-01 -1.401823999999999959e+00 1.078956000000000026e+00 2.991920000000000135e-01 1.832082999999999906e+00 -1.117531999999999970e+00 3.443370000000000042e-01 -7.056329999999999547e-01 3.196800000000000197e-01 5.965620000000000367e-01 3.594620000000000037e-01 5.278460000000000374e-01 7.013629999999999587e-01 7.369759999999999645e-01 -2.109103999999999868e+00 6.933570000000000011e-01 -4.364959999999999951e-01 1.130540000000000017e-01 8.328560000000000407e-01 1.529438000000000075e+00 2.226370000000000016e-01 2.560859999999999803e-01 -1.637730000000000019e-01 7.665650000000000519e-01 -3.437589999999999812e-01 1.066939999999999972e-01 -4.524799999999999933e-01 -1.448750999999999900e+00 -2.970610000000000195e-01 -2.001590000000000036e-01 5.036990000000000078e-01 -9.780400000000000205e-01 -1.218582999999999972e+00 2.211799999999999877e-01 -2.673329999999999873e-01 1.718520000000000048e-01 1.701300000000000034e-01 8.069960000000000466e-01 1.616470000000000129e-01 -2.931219999999999937e-01 -6.259449999999999736e-01 9.224250000000000504e-01 2.628614999999999924e+00 -3.481940000000000035e-01 7.499599999999999600e-01 -1.729950000000000099e-01 9.179349999999999454e-01 -5.415759999999999463e-01 -1.083398000000000083e+00 -3.600789999999999824e-01 4.913219999999999810e-01 1.150439999999999935e-01 -2.109245000000000037e+00 9.860830000000000428e-01 1.466568000000000094e+00 4.692099999999999743e-02 1.670020000000000115e-01 -1.867429999999999923e-01 -7.252830000000000110e-01 -3.750539999999999985e-01 6.718370000000000175e-01 4.104539999999999855e-01 -3.766639999999999988e-01 -8.353859999999999619e-01 -5.899699999999999944e-01 -9.073900000000000021e-02 2.235799999999999940e-02 -4.485219999999999763e-01 3.916799999999999726e-01 -1.274048000000000069e+00 4.435370000000000146e-01 -8.762039999999999829e-01 4.825769999999999782e-01 2.316759999999999931e-01 3.678599999999999925e-02 -2.373099999999999862e-02 5.375490000000000546e-01 -1.812340000000000062e-01 1.428200000000000025e-01 -5.186870000000000092e-01 -1.672210999999999892e+00 8.637300000000000533e-02 7.983069999999999888e-01 -9.685749999999999638e-01 1.458100000000000021e-02 -1.113971000000000044e+00 -1.775249999999999884e-01 2.977469999999999839e-01 6.529709999999999681e-01 1.695399999999999963e-01 6.394149999999999556e-01 1.191387999999999892e+00 -7.059809999999999697e-01 -5.078070000000000084e-01 -2.140890000000000015e-01 -2.936889999999999779e-01 7.189849999999999852e-01 1.833611000000000102e+00 -2.036760000000000126e+00 -6.988499999999999712e-01 -2.398039999999999894e-01 7.610010000000000385e-01 4.556089999999999862e-01 -3.212510000000000088e-01 -2.686540000000000039e-01 -4.163800000000000140e-02 1.254639000000000060e+00 -2.759899999999999853e-02 1.439570999999999934e+00 -1.779725999999999919e+00 1.964852999999999961e+00 -5.877620000000000067e-01 5.039740000000000331e-01 -4.027810000000000001e-01 -1.072685000000000111e+00 8.750289999999999457e-01 -1.485896000000000106e+00 1.266672000000000020e+00 -8.809970000000000301e-01 1.039450999999999903e+00 -1.889618999999999938e+00 7.782100000000000128e-02 6.373000000000000193e-03 -1.100287999999999933e+00 9.556599999999999540e-01 7.143900000000000250e-02 -7.395990000000000064e-01 4.972509999999999986e-01 9.762210000000000054e-01 -5.024819999999999842e-01 -1.157440999999999942e+00 -2.276459999999999873e-01 -7.694779999999999953e-01 1.193000999999999978e+00 1.093005999999999922e+00 -1.162429999999999991e-01 6.831930000000000502e-01 -7.476099999999999413e-02 1.049136000000000069e+00 8.144999999999999463e-02 -3.020300000000000068e-02 -5.643040000000000278e-01 8.823969999999999869e-01 6.158069999999999933e-01 5.347690000000000499e-01
-8.622670000000000057e-01 7.119750000000000245e-01 1.530636000000000108e+00 -1.082904000000000089e+00 -1.100222000000000033e+00 2.560826000000000047e+00 1.572092000000000045e+00 1.601493000000000055e+00 -1.291819999999999968e+00 -8.357000000000000539e-02 7.529550000000000409e-01 1.500534999999999952e+00 8.174999999999999975e-03 1.633277000000000090e+00 2.814949999999999952e-01 -4.526689999999999880e-01 1.573825999999999947e+00 -2.178043999999999869e+00 -1.074456999999999995e+00 3.769499999999999934e-02 -2.923890000000000100e+00 -1.210993999999999904e+00 -1.688391999999999893e+00 -1.599520000000000108e-01 -1.443610000000000060e+00 1.207886000000000015e+00 -2.097468000000000110e+00 1.225090000000000068e-01 -5.930020000000000291e-01 -1.749875999999999987e+00 4.849160000000000137e-01 7.365620000000000500e-01 1.674628000000000005e+00 2.713409999999999989e-01 3.487640000000000184e-01 -3.645579999999999932e-01 7.960009999999999586e-01 -8.487029999999999852e-01 -1.670404000000000000e+00 1.247840999999999978e+00 -5.803540000000000365e-01 4.740280000000000049e-01 1.393020000000000092e-01 -7.232600000000000140e-02 1.097968999999999973e+00 6.560740000000000460e-01 -2.514343000000000217e+00 5.893500000000000127e-02 -4.718720000000000137e-01 5.639319999999999888e-01 1.461409999999999931e-01 3.794899999999999940e-01 -6.285910000000000108e-01 -7.672240000000000171e-01 1.156441000000000052e+00 -5.613979999999999526e-01 3.809040000000000203e-01 -3.646650000000000169e-01 8.685739999999999572e-01 1.520235000000000003e+00 1.118813000000000057e+00 2.581198999999999799e+00 4.128999999999999893e-01 -6.932810000000000361e-01 -3.321400000000000047e-02 1.505663999999999891e+00 1.519498000000000015e+00 2.025527999999999995e+00 8.103890000000000260e-01 1.719720000000000137e-01 -2.702564999999999884e+00 4.924439999999999928e-01 7.293269999999999476e-01 3.952700000000000102e-01 2.901779999999999915e-01 7.722489999999999633e-01 1.903899999999999926e+00 6.731859999999999511e-01 -1.606970000000000065e-01 -2.785292999999999797e+00 -5.421700000000000408e-01 -1.118557000000000023e+00 -2.495985999999999816e+00 9.764760000000000106e-01 -8.721119999999999983e-01 2.741000000000000034e-02 -8.823020000000000307e-01 1.355188000000000059e+00 8.122600000000000653e-02 -9.568849999999999856e-01 -9.267549999999999955e-01 -7.758089999999999709e-01 3.437082999999999888e+00 1.208058999999999994e+00 6.068179999999999685e-01 -7.984050000000000313e-01 8.031490000000000018e-01 1.639829999999999899e-01 -1.158995999999999915e+00 -1.412140000000000062e-01 1.161575999999999942e+00 2.737319999999999753e-01 5.924380000000000202e-01 -1.223230000000000012e-01 1.231492999999999949e+00 -1.362720000000000042e-01 4.751440000000000108e-01 1.067967000000000111e+00 9.303080000000000238e-01 -1.371534999999999949e+00 7.363699999999999413e-02 1.775700999999999974e+00 9.380030000000000312e-01 -2.316307000000000116e+00 -3.830500000000000016e-01 5.097639999999999949e-01 -1.053673000000000082e+00 6.015390000000000459e-01 9.822910000000000252e-01 -1.110357000000000038e+00 -1.655262000000000011e+00 -2.559200000000000016e-02 2.063790000000000069e-01 7.465190000000000436e-01 1.949063999999999908e+00 2.047295999999999783e+00 2.290530000000000066e-01 1.190984000000000043e+00 1.042489999999999917e+00 4.855309999999999904e-01 1.266623999999999972e+00 1.030823000000000045e+00 -5.195099999999999718e-02 -6.875199999999999367e-02 1.017590999999999912e+00 -5.494590000000000307e-01 -6.777389999999999803e-01 -5.158930000000000460e-01 -1.914579999999999893e-01 -6.740530000000000133e-01 7.269919999999999716e-01 -1.389148999999999967e+00 -1.977074999999999916e+00 1.564572999999999992e+00 -2.028090999999999866e+00 1.809714000000000045e+00 -1.303423999999999916e+00 2.066649999999999876e-01 6.263000000000000338e-03 -6.268209999999999615e-01 -9.745340000000000114e-01 -1.489298999999999928e+00 7.327590000000000492e-01 -1.013769999999999949e-01 -3.053510000000000169e+00 -1.198499999999999899e+00 -2.546350000000000002e-01 5.505120000000000013e-01 1.495452999999999921e+00 -2.881685000000000052e+00 2.143952000000000080e+00 -1.135904000000000025e+00 -8.277079999999999993e-01 -1.074848000000000026e+00 3.451699999999999907e-02 2.558250000000000246e-01 -1.486318000000000028e+00 -1.049363999999999963e+00 8.837169999999999748e-01 -1.520400000000000085e-01 -1.671721000000000013e+00 1.102902000000000049e+00 5.519099999999999701e-02 -1.630799999999999958e-02 -1.101798000000000055e+00 2.126530000000000087e-01 -1.420299999999999896e+00 1.437826000000000048e+00 -2.538670000000000093e-01 -4.327600000000000197e-02 1.116915000000000102e+00 6.052880000000000482e-01 1.470450000000000035e+00 2.026310000000000056e-01 -1.547149999999999914e-01 -7.464800000000000602e-02 1.502701999999999982e+00 5.258999999999999786e-02 -9.229800000000000504e-02 9.060439999999999605e-01 -5.569220000000000281e-01 6.733740000000000281e-01 8.680300000000000515e-02 -4.472880000000000189e-01 -1.293079000000000089e+00 1.117029999999999967e+00 1.674660000000000037e+00 -4.532499999999999862e-01 -1.633030000000000037e-01 -4.850519999999999832e-01 -4.517109999999999737e-01 2.023089999999999833e+00 -1.777346000000000092e+00 2.271000000000000015e-03 1.095391000000000004e+00 -2.121682999999999986e+00 9.037049999999999805e-01 -4.541470000000000229e-01 8.176820000000000199e-01 -2.552619999999999889e-01 8.133810000000000207e-01 6.260799999999999699e-02 6.212899999999999673e-02 1.028278000000000025e+00 1.993726000000000109e+00 -9.811800000000000521e-01 -1.894919999999999938e+00 -2.395569999999999922e-01 4.474299999999999805e-02 -1.304460000000000064e-01 1.137286999999999937e+00 -1.373793000000000042e+00 1.076764000000000054e+00 1.472401999999999989e+00 9.464590000000000503e-01 -5.465339999999999643e-01 -7.982810000000000183e-01 8.406500000000000083e-01 -7.390109999999999735e-01 -3.087199999999999944e-01 1.530999999999999917e+00 -1.967500000000000152e-02 -1.896420999999999912e+00 2.273916999999999966e+00 -6.397159999999999513e-01 -7.774510000000000032e-01 -9.361819999999999586e-01 -1.014040999999999970e+00 2.006610000000000060e-01 7.148510000000000142e-01 -2.146170000000000022e-01 8.609329999999999483e-01 6.949299999999999922e-02 1.601102999999999943e+00 -3.832699999999999996e-01 1.266148999999999969e+00 3.704149999999999943e-01 -2.232793000000000028e+00 -1.807034999999999947e+00 -2.142211999999999783e+00 1.542858999999999980e+00 -4.819379999999999775e-01 -6.405319999999999903e-01 -5.241759999999999753e-01 -1.215398999999999896e+00 -1.933357999999999910e+00 9.726679999999999771e-01 -1.753168000000000060e+00 -4.985609999999999764e-01 -2.561269999999999936e-01 3.587600000000000233e-01 -6.972100000000000519e-02 -1.484949999999999881e-01 -1.403230999999999895e+00 5.665540000000000020e-01 -3.506170000000000120e-01 9.179199999999999859e-02 -2.981960000000000166e-01 6.532580000000000053e-01 9.307849999999999735e-01 9.015999999999999709e-03 -1.100554999999999950e+00 6.961760000000000170e-01 -2.195222999999999924e+00 1.326637000000000066e+00 -9.673040000000000527e-01 -2.624250000000000194e-01 -7.329149999999999832e-01 -2.144310000000000105e-01 6.611799999999999622e-02 6.522679999999999589e-01 -4.893040000000000167e-01
1.415362000000000009e+00 8.732640000000000402e-01 -4.392969999999999930e-01 -2.362589999999999968e-01 -2.320490000000000053e-01 -8.527150000000000007e-01 3.402459999999999929e-01 4.533559999999999812e-01 -3.246769999999999934e-01 3.874000000000000221e-01 -1.291983000000000104e+00 5.106889999999999485e-01 -1.436493999999999938e+00 -1.224800000000000111e+00 -6.900530000000000275e-01 4.200000000000000174e-04 -3.196740000000000137e-01 -5.347520000000000051e-01 -9.849369999999999514e-01 1.287279999999999980e+00 -8.240420000000000522e-01 -1.640763999999999889e+00 1.455505000000000049e+00 -1.046872000000000025e+00 4.052700000000000191e-01 2.648999999999999879e-03 2.936429999999999874e-01 4.815349999999999908e-01 1.411664000000000030e+00 -8.772950000000000470e-01 -6.072319999999999940e-01 -1.460925000000000029e+00 -1.257209999999999939e+00 -1.189853000000000049e+00 -2.944370000000000043e-01 1.774655000000000094e+00 1.451097000000000081e+00 -1.455445000000000100e+00 8.647259999999999946e-01 3.033399999999999985e-01 9.121150000000000091e-01 -6.938779999999999948e-01 1.320586000000000038e+00 1.581828999999999930e+00 -6.495049999999999990e-01 2.365800000000000125e+00 9.005000000000000504e-02 -8.057899999999999785e-02 -1.087070999999999898e+00 -8.683100000000000540e-02 5.115330000000000155e-01 4.978230000000000155e-01 4.977420000000000178e-01 -1.900010000000000032e-01 1.706499999999999961e-01 1.126972000000000085e+00 1.233843999999999941e+00 -6.864989999999999704e-01 1.965590000000000115e-01 -9.720900000000000096e-01 1.335803000000000074e+00 -1.516204000000000107e+00 5.924500000000000322e-01 1.015390999999999933e+00 6.918609999999999483e-01 -2.041929999999999801e+00 4.753629999999999800e-01 -2.828550000000000231e-01 4.593969999999999998e-01 2.536229999999999873e-01 1.042211999999999916e+00 1.434258000000000033e+00 -2.902500000000000080e-01 1.575171000000000099e+00 4.192239999999999855e-01 9.154719999999999525e-01 4.003619999999999957e-01 -8.333570000000000144e-01 -2.465239999999999931e-01 -3.345609999999999973e-01 1.060235999999999956e+00 -5.848790000000000378e-01 -1.437024999999999997e+00 -3.317450000000000121e-01 -1.857350999999999974e+00 -9.721819999999999906e-01 8.411530000000000395e-01 2.214720000000000022e-01 -2.851710000000000078e-01 -4.542199999999999710e-02 -2.035327000000000108e+00 6.528129999999999766e-01 -2.038159999999999972e-01 -1.550091000000000108e+00 -5.039660000000000251e-01 -6.220890000000000031e-01 -1.605409999999999893e-01 -1.041139999999999982e-01 -3.944630000000000081e-01 7.637119999999999465e-01 -9.837909999999999711e-01 5.055720000000000214e-01 3.698520000000000141e-01 4.961800000000000099e-01 -8.880970000000000253e-01 -8.368799999999999850e-02 -4.386439999999999784e-01 9.943089999999999984e-01 -2.749389999999999890e-01 4.819149999999999823e-01 8.857660000000000533e-01 1.362508999999999970e+00 -1.330678999999999945e+00 3.334719999999999906e-01 -4.952280000000000015e-01 -9.996709999999999763e-01 -6.377570000000000183e-01 -7.835779999999999967e-01 -2.785449999999999871e-01 7.938150000000000484e-01 -1.666140000000000121e-01 1.114200000000000086e-02 -5.688100000000000100e-02 -2.868660000000000099e-01 2.609290000000000220e-01 1.477660000000000085e-01 -4.861100000000000143e-02 -2.872049999999999881e-01 -1.450666999999999929e+00 1.239103000000000065e+00 1.201994999999999925e+00 -1.397802999999999907e+00 -1.296925000000000106e+00 4.955640000000000045e-01 -1.803374999999999950e+00 -5.016380000000000283e-01 -9.865329999999999933e-01 -3.009350000000000080e-01 9.385200000000000209e-01 -9.655460000000000154e-01 -6.473090000000000233e-01 -3.569300000000000250e-01 1.244299000000000044e+00 5.512200000000000433e-01 -4.393190000000000150e-01 -5.365940000000000154e-01 1.354605999999999977e+00 -1.942800000000000082e-01 1.600679999999999881e-01 1.931820000000000093e+00 1.232999999999999938e-03 -1.510386000000000006e+00 1.287894000000000094e+00 -1.277125999999999983e+00 1.136311999999999989e+00 1.388627999999999973e+00 1.046821999999999919e+00 9.768639999999999546e-01 7.697760000000000158e-01 8.018089999999999939e-01 4.587459999999999871e-01 8.830599999999999561e-01 8.365850000000000231e-01 7.462079999999999824e-01 4.366979999999999751e-01 8.178109999999999546e-01 7.259999999999999787e-02 -7.106200000000000017e-02 9.075889999999999791e-01 5.000409999999999577e-01 -1.199718000000000062e+00 2.288679999999999881e-01 -5.097070000000000212e-01 -1.455649999999999999e-01 -8.618409999999999682e-01 -6.316850000000000520e-01 -4.607109999999999816e-01 1.010234000000000076e+00 1.937148000000000092e+00 -7.202030000000000376e-01 -6.448390000000000510e-01 -1.308975999999999917e+00 1.741600000000000092e-02 -6.978399999999999881e-02 5.109099999999999753e-02 -1.540040000000000020e-01 8.893469999999999986e-01 -6.485130000000000061e-01 8.859869999999999690e-01 5.524500000000000244e-02 3.687889999999999779e-01 -2.043800000000000130e-02 -9.140190000000000259e-01 7.048710000000000253e-01 1.231921999999999962e+00 -2.381530000000000036e-01 -1.507580000000000031e-01 1.675449999999999995e-01 -1.178668999999999967e+00 1.858019000000000087e+00 3.994389999999999885e-01 -2.014720000000000122e-01 3.702150000000000163e-01 1.750003999999999893e+00 -6.099399999999999961e-02 3.398829999999999907e-01 6.860289999999999999e-01 4.842960000000000043e-01 -1.099191000000000029e+00 2.725859999999999950e-01 5.830480000000000107e-01 3.952539999999999942e-01 -1.121251999999999915e+00 -1.304538999999999893e+00 -9.558489999999999487e-01 3.115539999999999976e-01 -1.151877999999999957e+00 -1.051129999999999898e+00 -3.453800000000000203e-01 2.000300000000000133e-01 7.317709999999999493e-01 -1.503720000000000057e-01 1.894039999999999890e-01 5.402099999999999957e-02 -1.333625000000000060e+00 -1.992291000000000034e+00 7.450109999999999788e-01 5.529070000000000373e-01 -7.478099999999999747e-01 -1.672619999999999940e-01 -6.212060000000000359e-01 -2.734119999999999884e-01 -1.047619000000000078e+00 -1.638630000000000086e-01 -6.241250000000000409e-01 -5.336670000000000025e-01 1.574980000000000047e+00 -1.451297000000000059e+00 -4.512979999999999769e-01 2.749100000000000155e-02 9.754380000000000273e-01 -2.429989999999999928e-01 4.102399999999999797e-02 8.557979999999999476e-01 3.703230000000000133e-01 1.245249999999999968e-01 1.518618000000000023e+00 -8.757099999999999884e-01 4.508610000000000118e-01 4.797529999999999850e-01 7.263920000000000377e-01 1.064845999999999959e+00 -3.791640000000000010e-01 -1.190801999999999916e+00 4.338620000000000254e-01 1.181612000000000107e+00 -3.695890000000000009e-01 4.659479999999999733e-01 2.932290000000000174e-01 2.984120000000000106e-01 -4.744220000000000104e-01 1.006323000000000079e+00 1.679460000000000119e-01 6.275429999999999620e-01 6.927899999999999336e-02 3.987999999999999878e-02 -6.516950000000000243e-01 -3.964999999999999775e-02 -2.804740000000000011e-01 -1.759371999999999936e+00 3.507339999999999902e-01 1.397349999999999981e-01 -1.400185999999999931e+00 6.901490000000000125e-01 6.255519999999999969e-01 -1.601160000000000083e-01 -6.340899999999999315e-02 -9.673840000000000217e-01 -1.354929999999999968e+00 -5.064440000000000053e-01 1.838480000000000114e-01 5.005199999999999927e-02