-9.110355860600000142e+02
-9.163899931800000331e+02
-9.120960831200000030e+02
-8.919707961100000375e+02
-9.093705772600000046e+02
-9.141821362099999533e+02
-9.174124346400000150e+02
-9.103434174400000529e+02
-9.103605791200000112e+02
-8.830762048599999616e+02
-9.131897405400000025e+02
-8.952042421999999533e+02
-9.142404961600000206e+02
-8.916244201900000235e+02
-9.007598124899999448e+02
-9.125299824899999521e+02
-9.066912428399999726e+02
-8.903708623300000227e+02
-9.152345773800000188e+02
-9.169944121900000482e+02
-8.967583067299999584e+02
-8.860193825300000299e+02
-9.002328978900000038e+02
-9.108530131999999639e+02
-8.827268524200000002e+02
-9.022758294200000364e+02
-9.088778358600000047e+02
-9.157277617099999816e+02
-8.799243832199999815e+02
-9.014372445799999696e+02
-9.190612375599999950e+02
-9.064893933199999765e+02
-9.000086833599999636e+02
-9.109330489699999589e+02
-9.138713856299999634e+02
-9.064465495299999702e+02
-8.954712983499999837e+02
-9.042594997100000001e+02
-9.158670085999999628e+02
-9.031351953800000274e+02
-8.950972419099999797e+02
-9.106211973199999647e+02
-9.091456961300000330e+02
-8.867411848699999837e+02
-9.138448912699999482e+02
-9.046930286699999897e+02
-8.824623979699999836e+02
-8.942840747400000510e+02
-9.089174053399999593e+02
-8.941488122499999918e+02
-9.204324667900000350e+02
-9.104272662600000103e+02
-9.098310886299999538e+02
-9.174417262199999641e+02
-8.906169058299999506e+02
-9.042685541800000237e+02
-8.849640942800000403e+02
-9.157828532099999848e+02
-9.133377794399999630e+02
-9.164214604400000326e+02
-9.157915344100000539e+02
-9.003731953000000203e+02
-8.970937042499999734e+02
-8.977409736500000008e+02
-9.175841017599999532e+02
-8.847786232800000334e+02
-9.088923033400000122e+02
-8.905681913099999747e+02
-8.958355797899999970e+02
-8.869503746699999738e+02
-9.170486683599999651e+02
-8.956828642499999660e+02
-8.968816609299999527e+02
-9.023787170199999537e+02
-9.087418100800000502e+02
-8.933605107600000110e+02
-8.915888059000000112e+02
-8.859657622600000195e+02
-9.220891169799999716e+02
-8.832246718799999599e+02
-8.967263278599999694e+02
-8.885017042700000047e+02
-8.790353286099999650e+02
-8.838603757299999870e+02
-8.951547316300000148e+02
-9.121176535900000317e+02
-8.928669641599999522e+02
-9.170904511600000433e+02
-9.048460830100000294e+02
-8.896028861800000413e+02
-9.120104131399999687e+02
-8.995472649399999909e+02
-8.974293824699999504e+02
-8.949735116699999935e+02
-8.858016938399999844e+02
-8.970472459300000310e+02
-9.122502270600000429e+02
-8.889510864000000083e+02
-9.061628785299999436e+02
-8.831461554899999555e+02
