7.335979999999999723e-01 5.104630000000000001e-01 -1.267729000000000106e+00 3.304500000000000215e-01 1.393923999999999941e+00 2.199200000000000113e-02 -1.999578000000000078e+00 -5.562270000000000270e-01 2.842315999999999843e+00 5.485970000000000013e-01 -1.407238999999999907e+00 6.885440000000000449e-01 2.421540000000000081e-01 5.363550000000000262e-01 4.074099999999999944e-01 -6.154400000000000148e-02 -1.828532999999999964e+00 2.400803999999999938e+00 1.712080999999999964e+00 1.911150000000000071e-01 2.081230000000000024e-01 -1.626967000000000052e+00 -2.856341000000000019e+00 -5.725270000000000081e-01 2.019970000000000099e-01 -1.957454999999999945e+00 -5.266410000000000258e-01 2.156200000000000061e-01 -5.554139999999999633e-01 -8.426019999999999621e-01 1.531990000000000018e-01 9.849820000000000242e-01 1.273946000000000023e+00 -9.810010000000000119e-01 -6.735029999999999628e-01 -6.734210000000000473e-01 1.390460999999999947e+00 4.473619999999999819e-01 -7.479120000000000212e-01 1.107574000000000058e+00 1.168499999999999921e-02 -6.529470000000000551e-01 2.649319999999999897e+00 -1.927956000000000003e+00 -1.698993999999999893e+00 -4.121350999999999765e+00 1.516607000000000038e+00 1.334295999999999927e+00 -3.841300000000000270e-01 3.486247999999999791e+00 -7.174749999999999739e-01 -1.310442000000000107e+00 2.745404999999999873e+00 1.603039000000000103e+00 -1.193821000000000021e+00 -2.115969999999999906e+00 -9.920139999999999514e-01 -5.321770000000000111e-01 -2.421301000000000148e+00 -2.681058999999999859e+00 7.933919999999999861e-01 5.440099999999999797e-02 -4.031939999999999968e-01 -1.237324000000000090e+00 -9.273800000000000099e-02 -9.252179999999999849e-01 1.649799999999999878e-02 -1.424673999999999996e+00 -1.329750000000000099e-01 1.738399999999999945e-01 -1.596629000000000076e+00 6.687980000000000036e-01 3.123761000000000010e+00 7.663630000000000164e-01 9.747799999999999798e-01 3.425009999999999999e-01 9.388799999999999923e-02 1.860794999999999977e+00 -8.399480000000000279e-01 1.920469999999999955e-01 -2.743100000000000052e-02 -1.816389999999999949e+00 2.046990999999999783e+00 1.481266999999999889e+00 -2.624389999999999779e-01 1.702089999999999992e-01 1.243340000000000001e-01 3.916319999999999801e-01 2.243610000000000049e-01 1.510880999999999919e+00 1.465724999999999945e+00 6.148999999999999952e-03 -9.802950000000000275e-01 1.570740999999999943e+00 2.224502000000000201e+00 -7.689899999999999514e-02 -4.097850000000000104e-01 -1.685993000000000075e+00 -9.635340000000000016e-01 1.434730999999999979e+00 -1.625286000000000008e+00 1.957959999999999978e-01 1.506869999999999876e-01 -9.963600000000000234e-02 3.733009999999999939e-01 3.548270000000000035e-01 2.127416999999999891e+00 9.769900000000000251e-01 -3.716781999999999808e+00 -2.550649999999999862e-01 -1.734550000000000036e+00 6.178100000000000258e-02 1.466695000000000082e+00 -4.976439999999999753e-01 -9.245799999999999852e-02 4.356999999999999762e-02 -9.913999999999999202e-03 2.237105000000000121e+00 -1.988220000000000098e+00 9.654629999999999601e-01 4.926719999999999988e-01 3.828159999999999896e-01 -9.490079999999999627e-01 4.392409999999999926e-01 -8.627909999999999746e-01 8.165390000000000148e-01 1.063266999999999962e+00 1.568997999999999893e+00 -1.244542999999999955e+00 -1.852986999999999940e+00 1.951518000000000086e+00 5.391169999999999574e-01 -5.602049999999999530e-01 5.839320000000000066e-01 -7.163789999999999880e-01 1.696179999999999910e-01 7.773780000000000134e-01 -2.788384000000000196e+00 1.673149999999999915e+00 -1.184250000000000025e-01 -4.724119999999999986e-01 -2.070844999999999825e+00 -1.385451999999999906e+00 5.290890000000000315e-01 1.467999999999999972e+00 1.250601999999999991e+00 2.384590000000000043e-01 -1.029438999999999993e+00 -1.314939000000000080e+00 -1.583792000000000089e+00 -1.324648999999999965e+00 1.770348000000000033e+00 1.373917000000000055e+00 -1.151243999999999934e+00 -2.447380000000000111e-01 1.383771000000000084e+00 -3.603317999999999799e+00 -1.837779999999999969e+00 1.655205999999999955e+00 -1.217420000000000030e-01 3.613799999999999790e-01 8.034759999999999680e-01 -3.732670000000000154e-01 2.004624999999999879e+00 1.092168000000000028e+00 -8.276369999999999560e-01 -2.145650000000000057e-01 2.204760000000000053e-01 9.890000000000000787e-04 -1.370706999999999898e+00 -9.865009999999999613e-01 -1.890017000000000058e+00 -1.043870000000000076e+00 -8.023409999999999709e-01 5.381489999999999885e-01 4.312309999999999754e-01 -4.087819999999999787e-01 6.243560000000000221e-01 1.075139999999999985e-01 3.182030000000000136e-01 -5.352440000000000531e-01 -1.981565000000000021e+00 -1.982933999999999974e+00 1.821177000000000046e+00 -7.929960000000000342e-01 1.920600000000000085e-01 4.538299999999999973e-02 1.114195000000000046e+00 5.090080000000000160e-01 1.864329999999999876e-01 -1.583080000000000043e+00 7.325190000000000312e-01 -1.486699999999999910e+00 1.385402000000000022e+00 2.368943999999999939e+00 -2.128839999999999899e-01 -1.981508999999999965e+00 4.176400000000000251e-02 4.588550000000000129e-01 1.711195000000000022e+00 5.029600000000000043e-02 -1.015581000000000067e+00 4.985530000000000239e-01 1.299355000000000038e+00 -8.433399999999999785e-01 2.617650000000000254e-01 2.063320000000000043e+00 -4.435399999999999898e-01 -2.815929999999999822e-01 3.907039999999999957e-01 4.327600000000000197e-02 -1.262250000000000039e-01 4.847759999999999847e-01 2.651510000000000256e-01 6.659939999999999749e-01 -9.842659999999999743e-01 -7.263880000000000337e-01 -2.607880000000000198e-01 -8.130389999999999562e-01 4.172549999999999870e-01 -8.915070000000000494e-01 -4.865050000000000208e-01 -6.942430000000000545e-01 1.312349999999999905e+00 -5.791269999999999474e-01 8.113169999999999549e-01 1.726056999999999952e+00 -1.594170000000000087e+00 2.148249999999999993e+00 -8.595789999999999820e-01 1.417512000000000105e+00 -4.586450000000000249e-01 -5.310399999999999565e-01 -3.251322000000000045e+00 -1.119545000000000012e+00 1.472188000000000052e+00 -4.051069999999999949e-01 3.525500000000000161e-02 -1.190370000000000039e-01 -1.126837000000000089e+00 2.463690000000000158e+00 -1.836381999999999959e+00 4.086790000000000145e-01 -1.002102000000000048e+00 1.416188000000000002e+00 -8.780599999999999516e-01 6.297660000000000480e-01 -1.768896000000000024e+00 -6.210830000000000517e-01 1.309374000000000038e+00 -2.800050000000000039e-01 2.759059999999999846e+00 2.865699999999999914e-01 -6.351580000000000004e-01 8.086989999999999457e-01 1.450414000000000092e+00 -8.209760000000000391e-01 -3.121800000000000130e-01 8.011120000000000463e-01 5.419720000000000093e-01 -1.347355000000000080e+00 1.215246000000000048e+00 1.100924999999999931e+00 2.776899999999999855e-02 -1.644609999999999961e-01 1.002254999999999896e+00 -5.226030000000000397e-01 8.929869999999999752e-01 1.006812000000000040e+00 -7.916600000000000026e-02 -7.237200000000000577e-02 -3.912809999999999899e-01 -1.829919999999999880e-01 1.013309999999999933e+00 9.561349999999999572e-01 -1.938950000000000118e-01
6.447669999999999790e-01 -2.580887000000000153e+00 1.262590000000000101e-01 -1.605568000000000106e+00 -1.101957999999999993e+00 -8.222559999999999869e-01 -6.745729999999999782e-01 3.621820000000000039e-01 9.443979999999999597e-01 -7.735210000000000141e-01 1.118699000000000110e+00 -1.860900000000000054e-01 -1.523565000000000058e+00 9.615660000000000318e-01 1.499109999999999943e+00 -6.732160000000000366e-01 5.209460000000000202e-01 -4.337300000000000183e-02 -3.236174000000000106e+00 2.322331000000000145e+00 3.150237000000000176e+00 2.330830000000000124e-01 -7.425370000000000026e-01 -1.160414000000000057e+00 2.351824999999999832e+00 -1.097191000000000027e+00 2.544000000000000150e-01 4.277460000000000151e-01 2.023569999999999869e+00 2.625460000000000016e-01 1.916200000000000125e-01 -7.877260000000000373e-01 1.285031999999999952e+00 -4.025099999999999789e-01 1.268084999999999907e+00 -2.491798000000000179e+00 7.725950000000000317e-01 4.811409999999999854e-01 -7.760280000000000511e-01 1.587429999999999952e-01 5.723249999999999726e-01 3.920120000000000271e-01 2.376462000000000074e+00 -3.584169999999999856e-01 1.246580000000000021e+00 2.024070000000000036e-01 6.579829999999999846e-01 -1.617380000000000040e+00 1.659510000000000041e+00 -6.906660000000000021e-01 1.900509000000000004e+00 -5.516499999999999737e-01 -5.266250000000000098e-01 9.150160000000000515e-01 8.805619999999999559e-01 1.201079999999999925e+00 6.384819999999999940e-01 -1.930290000000000061e-01 4.951320000000000165e-01 7.509289999999999576e-01 8.892839999999999634e-01 1.808797999999999906e+00 1.864962000000000009e+00 1.510756999999999906e+00 1.081566999999999945e+00 -1.678562000000000110e+00 8.211669999999999803e-01 8.130969999999999587e-01 -9.572850000000000525e-01 2.394795999999999925e+00 8.030709999999999793e-01 -1.964766999999999930e+00 -1.157963000000000076e+00 -6.976259999999999684e-01 -1.474709999999999910e-01 2.353530000000000066e-01 -1.298801000000000094e+00 2.591600000000000015e-01 -1.335607999999999906e+00 -4.492030000000000189e-01 -2.953129999999999922e-01 -6.777320000000000011e-01 7.471219999999999528e-01 1.676859000000000099e+00 -1.976838000000000095e+00 -7.273969999999999603e-01 -3.029765999999999959e+00 -6.486199999999999743e-01 -1.167119999999999935e+00 -5.200740000000000363e-01 -9.681349999999999678e-01 2.026467999999999936e+00 1.465235000000000065e+00 1.178085000000000049e+00 1.118705000000000060e+00 1.664171000000000067e+00 1.271740000000000093e+00 -4.687640000000000140e-01 -6.909239999999999826e-01 7.288189999999999946e-01 1.106039999999999940e-01 6.326659999999999506e-01 -2.821267000000000191e+00 -1.851949999999999985e+00 -2.751152999999999960e+00 7.182790000000000008e-01 -2.364380999999999844e+00 -1.030448000000000031e+00 -7.476679999999999993e-01 1.794718000000000035e+00 1.747222000000000053e+00 2.091340999999999894e+00 7.588909999999999823e-01 -2.226509999999999878e-01 -2.479480000000000017e-01 -1.308272000000000101e+00 1.232261999999999968e+00 -1.063140000000000057e-01 -1.539865000000000039e+00 -1.331749999999999989e+00 5.113640000000000407e-01 7.053380000000000205e-01 -2.425749000000000155e+00 -3.156700000000000061e-01 -1.316653000000000073e+00 1.042860000000000037e-01 -3.222289999999999877e-01 5.736329999999999485e-01 -8.845229999999999482e-01 -6.220480000000000453e-01 1.234609000000000067e+00 -7.446359999999999646e-01 -3.404589000000000087e+00 1.119040000000000035e-01 -5.614069999999999894e-01 3.928630000000000178e-01 5.755350000000000188e-01 -2.369570000000000010e-01 -5.240650000000000031e-01 -3.245020000000000127e-01 1.123564999999999925e+00 4.923699999999999743e-01 1.757373000000000074e+00 1.120492999999999961e+00 -1.225970000000000004e+00 4.401530000000000165e-01 2.573849999999999749e-01 2.236577000000000037e+00 -1.050680000000000058e+00 1.206428000000000056e+00 -1.599917000000000034e+00 4.278870000000000173e-01 9.409809999999999564e-01 -1.558850999999999987e+00 -8.928449999999999998e-01 1.181240000000000068e+00 -2.182409999999999906e-01 -7.484169999999999989e-01 -4.510520000000000085e-01 -6.444189999999999641e-01 6.340740000000000265e-01 2.249339999999999951e-01 -9.376999999999999919e-03 6.373299999999999799e-02 5.512139999999999818e-01 5.516159999999999952e-01 -1.212722000000000078e+00 1.719649999999999901e+00 -7.920220000000000038e-01 -8.963929999999999954e-01 5.465170000000000305e-01 -9.496000000000000274e-02 1.063526999999999889e+00 -3.650379999999999736e-01 4.078109999999999791e-01 -4.071859999999999924e-01 -1.015778000000000070e+00 4.358449999999999824e-01 -4.188930000000000153e-01 1.462239999999999984e+00 -7.613100000000000422e-02 8.577179999999999804e-01 -5.944469999999999477e-01 -6.799309999999999521e-01 3.872019999999999906e-01 5.156950000000000145e-01 -9.308699999999999752e-01 2.449999999999999921e-04 6.877480000000000260e-01 -1.332969000000000070e+00 1.522226999999999997e+00 6.154690000000000438e-01 -1.215090000000000059e-01 -1.212936000000000014e+00 -2.705144999999999911e+00 -3.646440000000000237e-01 2.861449999999999827e-01 3.147909999999999875e-01 6.305500000000000549e-01 -9.522760000000000113e-01 -1.539492000000000083e+00 1.808073000000000041e+00 7.400099999999999456e-01 -9.022780000000000244e-01 1.585166000000000075e+00 1.186075999999999908e+00 -1.568986999999999910e+00 -1.223708000000000018e+00 -3.414889999999999870e-01 2.651270000000000016e-01 1.726874000000000020e+00 -2.800239999999999951e-01 -1.500116999999999923e+00 -1.085336000000000078e+00 -1.820197999999999983e+00 1.503470000000000084e-01 1.159435999999999911e+00 7.450670000000000348e-01 -3.155180000000000207e-01 4.024869999999999837e-01 -9.383629999999999471e-01 8.591029999999999500e-01 -1.809371000000000063e+00 -1.498259999999999870e-01 1.720409999999999995e+00 1.736367999999999912e+00 -4.770289999999999808e-01 4.570040000000000213e-01 -8.293690000000000229e-01 -6.106099999999999861e-01 -1.881029999999999924e-01 -2.432259000000000171e+00 -1.463033000000000028e+00 3.021039999999999837e-01 1.136644999999999905e+00 -6.148679999999999701e-01 1.049414000000000069e+00 -3.974059999999999815e-01 7.662989999999999524e-01 6.820279999999999676e-01 3.603770000000000029e-01 -4.112319999999999864e-01 -1.192628999999999939e+00 -2.288419999999999899e-01 -1.012096000000000107e+00 -1.347500000000000087e-02 1.405763000000000096e+00 -1.022887000000000102e+00 -1.473635000000000028e+00 -8.043770000000000087e-01 -5.585729999999999862e-01 5.983999999999999736e-03 9.452209999999999779e-01 -5.111240000000000228e-01 -2.182590999999999948e+00 3.168389999999999818e-01 1.903705999999999898e+00 1.562858999999999998e+00 -3.696619999999999906e-01 1.944201999999999986e+00 -8.375820000000000487e-01 9.714019999999999877e-01 -1.406203000000000092e+00 -1.871024000000000020e+00 1.093080999999999969e+00 1.132070000000000021e-01 8.926619999999999555e-01 1.316796000000000078e+00 -6.625370000000000426e-01 -1.315139999999999920e-01 1.107420999999999989e+00 -5.132679999999999465e-01 -2.924649999999999750e-01 -1.292480000000000018e-01 8.983029999999999626e-01 1.283919000000000032e+00
-2.834499999999999797e-01 3.555500000000000327e-02 7.738350000000000506e-01 5.023099999999999787e-02 3.427112999999999854e+00 2.182355999999999963e+00 -9.032609999999999806e-01 1.032057000000000002e+00 -3.114968000000000181e+00 1.098397999999999985e+00 7.987199999999999855e-01 2.810289999999999733e-01 1.158890000000000059e-01 -9.644719999999999960e-01 5.805989999999999762e-01 8.570400000000000240e-02 -5.610500000000000487e-01 -1.401062000000000030e+00 5.274320000000000119e-01 6.878300000000000525e-01 5.072980000000000267e-01 7.224699999999999456e-01 2.526630000000000265e-01 -8.462300000000000377e-01 1.030637999999999943e+00 -1.611010000000000053e+00 1.597064999999999957e+00 9.756320000000000547e-01 -1.275798999999999905e+00 -1.415923999999999960e+00 1.365139000000000102e+00 -1.517380000000000118e-01 -1.055382999999999960e+00 -1.246504000000000056e+00 -1.072779999999999984e-01 5.098000000000000101e-03 -3.560030000000000139e-01 2.553800000000000167e-02 2.919860000000000233e-01 1.631970000000000087e-01 -1.565603999999999996e+00 1.777978999999999976e+00 1.657864000000000004e+00 7.248559999999999448e-01 -5.965580000000000327e-01 1.032310000000000033e-01 1.296516999999999920e+00 7.009539999999999660e-01 -4.280470000000000108e-01 1.745244999999999935e+00 -2.159639999999999893e-01 -1.773344000000000031e+00 1.307722999999999969e+00 -2.957259999999999889e-01 1.539582000000000006e+00 -9.957080000000000375e-01 2.163666999999999785e+00 4.836790000000000256e-01 -2.912660000000000249e-01 -1.962623000000000006e+00 -4.537700000000000067e-02 3.356319999999999859e-01 -9.761699999999999544e-02 2.632226000000000177e+00 -2.319097000000000186e+00 1.373353999999999964e+00 4.721730000000000094e-01 2.238749999999999907e-01 -1.309771999999999936e+00 -2.093360000000000110e+00 6.373919999999999586e-01 3.598412999999999862e+00 8.671780000000000044e-01 -1.605860000000000065e-01 -1.139844000000000079e+00 -8.903499999999999748e-01 -1.750231000000000092e+00 1.511500000000000066e-01 1.047266999999999948e+00 -1.752950000000000008e+00 -1.003069999999999934e-01 -2.964049999999999740e-01 1.523662000000000072e+00 -1.227751000000000037e+00 6.834949999999999637e-01 -9.222320000000000517e-01 5.790000000000000008e-03 2.237530000000000074e-01 3.337066999999999783e+00 3.436290000000000178e-01 -7.751479999999999482e-01 1.671043999999999974e+00 2.323300000000000087e-01 6.509299999999999808e-02 2.572139999999999982e-01 7.772480000000000500e-01 -1.663229999999999986e+00 8.223439999999999639e-01 -1.002000000000000069e-03 -3.017610000000000015e-01 -1.013303999999999983e+00 -4.952059999999999795e-01 -2.313109999999999999e+00 5.863380000000000258e-01 -1.025257000000000085e+00 -9.885300000000000198e-01 4.532030000000000225e-01 7.512950000000000461e-01 -5.785500000000000087e-01 -1.891802999999999901e+00 -2.568300000000000097e-02 1.375815000000000010e+00 1.565366000000000035e+00 -9.425580000000000069e-01 1.356211999999999973e+00 -1.916913000000000089e+00 7.938920000000000421e-01 -7.983569999999999833e-01 6.596330000000000249e-01 -1.130935999999999941e+00 1.275519999999999987e+00 -1.735109000000000012e+00 2.774941000000000102e+00 -1.072257999999999933e+00 -7.317069999999999963e-01 -9.777219999999999800e-01 4.108220000000000205e-01 4.435200000000000253e-02 1.173119999999999996e-01 1.112260000000000026e+00 6.719840000000000257e-01 -3.980139999999999789e-01 7.049469999999999903e-01 -3.607850000000000223e-01 1.945919999999999872e-01 -1.375520000000000076e+00 -1.106999999999999911e-03 1.370754999999999946e+00 1.239129999999999954e-01 6.307450000000000001e-01 -5.015650000000000386e-01 1.232850000000000057e-01 -5.617990000000000483e-01 -1.222290000000000043e-01 -6.560979999999999590e-01 -1.144449000000000050e+00 6.709150000000000391e-01 -4.643539999999999890e-01 1.815196000000000032e+00 -9.652659999999999574e-01 2.018394999999999939e+00 -4.967019999999999769e-01 -9.386949999999999461e-01 -9.476769999999999916e-01 7.639080000000000314e-01 1.367809999999999970e+00 1.972900000000000098e+00 7.860479999999999690e-01 -6.252799999999999470e-01 2.609210000000000140e-01 -6.502830000000000554e-01 -4.073979999999999824e-01 8.826359999999999761e-01 1.763177999999999912e+00 -7.493800000000000461e-02 1.650810000000000111e+00 -5.108920000000000128e-01 -1.724334999999999951e+00 -1.438587000000000060e+00 -1.231931000000000109e+00 3.037300000000000000e-01 -8.008669999999999956e-01 -1.515120000000000022e+00 -1.528834000000000026e+00 -2.200473000000000123e+00 -9.004339999999999566e-01 -4.392800000000000038e-01 1.106768999999999892e+00 4.889490000000000225e-01 9.114980000000000304e-01 -1.120889999999999942e+00 9.007690000000000419e-01 2.029293000000000013e+00 -1.099831000000000003e+00 8.236379999999999812e-01 -9.370340000000000336e-01 -1.350473000000000035e+00 -1.174141000000000101e+00 9.464399999999999480e-01 -2.735961999999999783e+00 3.940810000000000146e-01 4.443361999999999590e+00 -7.964229999999999920e-01 1.723860000000000114e-01 2.067126000000000019e+00 5.226300000000000390e-01 -3.766189999999999816e-01 -7.701199999999999712e-02 -1.393369000000000080e+00 2.305657000000000068e+00 5.097070000000000212e-01 -3.724950000000000205e-01 9.130129999999999635e-01 -1.465796000000000099e+00 5.658640000000000336e-01 1.894622999999999946e+00 1.627979999999999983e-01 2.647619999999999973e-01 1.054999999999999948e-03 1.108106999999999953e+00 1.952858999999999901e+00 -5.929400000000000226e-01 7.783039999999999958e-01 -1.440053999999999945e+00 -1.688919999999999977e+00 -6.357129999999999725e-01 -2.574020000000000197e-01 -7.602870000000000461e-01 -1.109761999999999915e+00 2.316069999999999851e+00 1.474854000000000109e+00 -3.356410000000000227e-01 -6.994939999999999491e-01 5.543470000000000342e-01 -1.027112999999999943e+00 1.171988999999999947e+00 -1.296689999999999898e+00 -2.913189999999999946e-01 -5.704879999999999951e-01 -5.815869999999999651e-01 -5.411900000000000044e-02 -1.248075999999999963e+00 -1.913199999999999901e-01 -6.626670000000000060e-01 -1.319954000000000072e+00 7.518070000000000030e-01 -5.652369999999999894e-01 1.570111000000000034e+00 -2.222767999999999855e+00 1.521840000000000082e+00 -2.605000000000000093e-01 -1.101328000000000085e+00 3.087489999999999957e-01 -1.504064000000000068e+00 -9.042909999999999560e-01 -2.020923999999999943e+00 8.041040000000000409e-01 -1.402241000000000071e+00 1.064272000000000107e+00 3.536500000000000199e-01 -1.236050000000000065e-01 -6.929840000000000444e-01 -6.254700000000000537e-02 1.249770000000000048e-01 -7.460010000000000252e-01 1.691329000000000082e+00 8.461779999999999857e-01 -1.031228000000000034e+00 -7.717899999999999761e-02 -6.902300000000000102e-02 3.179509999999999836e-01 -1.171016000000000057e+00 6.466020000000000101e-01 -2.399350999999999789e+00 -6.479999999999999649e-03 -8.561799999999999966e-02 -2.003439999999999943e-01 4.637700000000000156e-01 7.816490000000000382e-01 -4.091799999999999882e-01 5.997010000000000396e-01 -7.226820000000000466e-01 7.298000000000000320e-02 -3.849940000000000029e-01 -5.711629999999999763e-01 -1.661019999999999996e-01
-2.048699999999999966e-01 -1.629661999999999944e+00 1.081733000000000056e+00 -4.066402000000000072e+00 5.781180000000000208e-01 -2.328130999999999950e+00 1.537269999999999914e+00 -3.465360000000000107e-01 -1.046942999999999957e+00 1.702968999999999955e+00 1.225638000000000005e+00 -2.284899999999999931e+00 1.367269999999999985e+00 -1.896365000000000078e+00 -1.126039999999999958e-01 3.608934000000000086e+00 -5.379152999999999629e+00 -2.886976000000000209e+00 1.667491999999999974e+00 -2.225638000000000005e+00 -2.033470000000000000e-01 -1.336974000000000107e+00 -6.013190000000000479e-01 1.901523999999999992e+00 -1.288548000000000027e+00 2.453024999999999789e+00 1.240741000000000094e+00 -2.904710999999999821e+00 3.441981999999999875e+00 -2.289899999999999824e+00 -3.177366000000000135e+00 -2.401777000000000051e+00 2.222793999999999937e+00 1.693157000000000023e+00 -1.242877999999999927e+00 -6.327418999999999905e+00 9.038530000000000175e-01 2.415976000000000123e+00 -3.456900000000000250e-02 -3.041106999999999783e+00 1.554453000000000085e+00 -7.613569999999999505e-01 -5.898689999999999767e-01 1.560362999999999944e+00 2.493956999999999979e+00 -2.563159999999999883e-01 8.146949999999999470e-01 8.647240000000000482e-01 -1.245611999999999941e+00 -1.748164000000000051e+00 2.678760000000000030e+00 1.026823999999999959e+00 -4.442809999999999815e-01 -3.583069999999999866e-01 7.593720000000000470e-01 8.037410000000000387e-01 1.779547999999999908e+00 -5.172600000000000531e-01 -1.285552999999999946e+00 1.825819999999999999e+00 -2.031667999999999807e+00 4.100469999999999948e-01 9.337849999999999762e-01 -3.893183000000000060e+00 5.880670000000000064e-01 1.443068000000000017e+00 1.507254000000000094e+00 -9.219720000000000137e-01 1.749922999999999895e+00 -3.773989999999999845e-01 -8.673980000000000024e-01 -2.124080000000000135e-01 2.224943999999999811e+00 1.577359999999999873e-01 -1.622109000000000023e+00 1.358980999999999995e+00 2.239339000000000190e+00 2.596929999999999961e+00 9.883500000000000618e-02 -7.896799999999999653e-02 1.830904000000000087e+00 -7.981150000000000189e-01 -2.245909000000000155e+00 1.610594999999999999e+00 4.984560000000000102e-01 3.171208000000000027e+00 8.954649999999999554e-01 2.976970000000000116e+00 1.833537999999999890e+00 8.914649999999999519e-01 -1.920973000000000042e+00 2.304491000000000067e+00 -3.424119999999999830e+00 3.471303999999999945e+00 1.912401000000000018e+00 3.982082999999999817e+00 2.196804999999999897e+00 1.505338000000000065e+00 -1.834699999999999998e+00 1.721227000000000062e+00 1.446917999999999926e+00 5.735795999999999673e+00 -5.720659999999999634e-01 1.031619999999999981e+00 2.136587000000000014e+00 -3.638821999999999779e+00 -1.282059000000000060e+00 -3.935001999999999889e+00 -1.233198999999999934e+00 6.304600000000000204e-01 -1.827801000000000009e+00 -7.832719999999999683e-01 -8.898479999999999723e-01 -9.426299999999999957e-02 1.094599999999999913e-02 -6.672540000000000138e-01 -1.671683000000000030e+00 -1.410981000000000041e+00 3.494120000000000004e-01 -1.813889999999999947e-01 1.600786999999999960e+00 2.558445999999999998e+00 -1.631700000000000095e-01 -1.670277000000000012e+00 -5.328490000000000171e-01 1.734793000000000029e+00 -7.173840000000000217e-01 -1.203038000000000052e+00 2.781549999999999856e-01 2.446520000000000084e-01 -1.146255000000000024e+00 4.131380000000000052e+00 9.977829999999999755e-01 -2.673679999999999946e-01 1.059299999999999964e-01 -1.698459999999999970e-01 -1.024497999999999909e+00 1.832349999999999923e+00 2.962286000000000197e+00 -6.729289999999999994e-01 -1.433399999999999952e-01 -8.926129999999999898e-01 -7.469270000000000076e-01 2.200409000000000059e+00 -2.943478999999999957e+00 1.066737999999999964e+00 -2.316567000000000043e+00 -2.398848000000000091e+00 4.375160000000000160e-01 -3.380870000000000264e-01 9.818959999999999910e-01 -6.135350000000000525e-01 -3.213642999999999805e+00 -1.152624000000000093e+00 -1.902109999999999912e-01 -8.254230000000000178e-01 3.629688999999999943e+00 -1.108703999999999912e+00 -1.481800000000000006e+00 1.748397999999999897e+00 3.123806000000000083e+00 -3.385472000000000037e+00 -4.570629999999999971e-01 4.542370000000000019e-01 -3.909750000000000170e-01 -1.456984999999999975e+00 -3.794989999999999752e-01 2.407716000000000189e+00 -1.866187000000000040e+00 4.836460000000000203e-01 4.839680000000000093e-01 -8.163890000000000313e-01 -1.075231000000000048e+00 -1.876223999999999892e+00 1.280764999999999931e+00 -1.887728000000000073e+00 -3.918630999999999975e+00 -8.976870000000000127e-01 1.444603000000000081e+00 -7.439970000000000194e-01 -2.104749999999999954e-01 -4.538369999999999904e-01 1.602753000000000094e+00 -4.059570000000000123e-01 3.854137000000000146e+00 1.915181999999999940e+00 -3.208721000000000156e+00 -2.094774999999999832e+00 3.762130000000000196e-01 1.533231000000000011e+00 6.040090000000000181e-01 -1.223932000000000020e+00 -7.188600000000000545e-02 -6.174039999999999528e-01 -3.371488999999999958e+00 2.297645999999999855e+00 -1.386158999999999919e+00 -7.580179999999999696e-01 7.785320000000000018e-01 -1.282780000000000031e+00 9.883030000000000426e-01 -1.610100000000000087e+00 -1.625907999999999909e+00 -4.990149999999999864e-01 8.937329999999999997e-01 1.492539999999999978e-01 -7.290400000000000214e-01 2.228788999999999909e+00 3.716820000000000124e-01 3.412000000000000033e-01 1.026127000000000011e+00 -1.830891999999999964e+00 3.988729999999999776e-01 -4.134849999999999914e-01 7.363870000000000138e-01 -1.580392999999999937e+00 -6.569089999999999652e-01 -1.419105000000000061e+00 -1.022079999999999933e-01 4.189890000000000003e-01 1.160782999999999898e+00 -8.372079999999999522e-01 1.951135000000000064e+00 1.184690000000000021e+00 -5.023509999999999920e-01 4.205347999999999864e+00 -5.221550000000000358e-01 3.093180999999999958e+00 4.448179999999999912e-01 1.018887000000000098e+00 2.513449999999999851e-01 2.341178999999999899e+00 -1.735190999999999928e+00 2.390579999999999927e-01 -3.174230999999999803e+00 1.392830999999999930e+00 -7.108799999999999564e-01 1.994650000000000034e-01 -2.627631000000000050e+00 2.135060999999999876e+00 -2.496106000000000158e+00 -8.806500000000000439e-01 1.111722000000000099e+00 -8.802759999999999474e-01 1.944379999999999997e-01 -2.181080999999999825e+00 -6.020280000000000076e-01 1.403056999999999999e+00 -1.823341000000000101e+00 -3.864190000000000125e-01 5.188220000000000054e-01 -1.570799999999999974e-01 5.786750000000000504e-01 1.916619999999999990e+00 -8.635950000000000015e-01 1.128759000000000068e+00 1.085409000000000068e+00 2.431385999999999825e+00 2.732550000000000257e-01 2.146199999999999844e-02 1.820080000000000031e-01 1.974899999999999989e-01 -1.141763000000000083e+00 -1.325545999999999891e+00 -2.841095000000000148e+00 -3.678399999999999725e-02 2.728079999999999949e-01 2.736685000000000034e+00 -1.700628000000000029e+00 4.166451000000000349e+00 8.347000000000000253e-02 -5.194069999999999521e-01 -9.655280000000000529e-01 5.893369999999999997e-01 -7.314519999999999911e-01 -2.710481000000000140e+00