1.094999999999999966e-02 2.618869999999999809e+00 2.754459999999999908e+00 1.001059000000000054e+01 2.736139999999999795e+00 8.066300000000000026e+00 1.004828000000000010e+01 7.462860000000000049e+00 2.387539999999999996e+00 9.912509999999999266e+00 7.724689999999999834e+00 7.701929999999999943e+00 5.104989999999999917e+00 2.571039999999999992e+00 2.617239999999999789e+00 4.989539999999999864e+00 2.796860000000000124e+00 8.261509999999999465e+00 5.046219999999999928e+00 7.892489999999999561e+00 2.330940000000000012e+00 5.052839999999999776e+00 8.012990000000000279e+00 7.881090000000000373e+00 2.507839999999999847e+00 7.040000000000000424e-02 2.665890000000000093e+00 2.351300000000000168e+00 1.013494999999999990e+01 7.764529999999999710e+00 2.583549999999999791e+00 5.053539999999999921e+00 2.653700000000000170e+00 2.533230000000000093e+00 5.346709999999999852e+00 7.542080000000000339e+00 7.482829999999999870e+00 1.077599999999999947e-01 2.912999999999999812e+00 7.704920000000000435e+00 3.472000000000000086e-02 7.906950000000000145e+00 7.617849999999999788e+00 5.198769999999999669e+00 2.745249999999999968e+00 7.155439999999999579e+00 5.345439999999999969e+00 7.901220000000000354e+00 2.689670000000000005e+00 2.563279999999999781e+00 5.188970000000000304e+00 2.491960000000000175e+00 2.649760000000000115e+00 1.827799999999999980e-01 2.845509999999999984e+00 7.559870000000000090e+00 5.059459999999999624e+00 2.413940000000000197e+00 7.703339999999999854e+00 8.047999999999999599e-02 7.775150000000000006e+00 2.600729999999999986e+00 5.421770000000000422e+00 7.578509999999999636e+00 2.472869999999999902e+00 3.523999999999999910e-01 7.657090000000000174e+00 7.773229999999999862e+00 5.094229999999999592e+00 7.561630000000000074e+00 7.808840000000000003e+00 1.035476000000000063e+01 8.039999999999999925e-02 1.010294999999999987e+01 5.181659999999999933e+00 -9.574000000000000565e-02 1.013984999999999914e+01 1.031056000000000061e+01 1.006300000000000061e+01 5.154449999999999754e+00 5.286559999999999704e+00 9.826000000000000512e+00 5.105349999999999611e+00 1.020745999999999931e+01 4.905529999999999724e+00 3.040999999999999953e-02 5.247919999999999696e+00 5.188259999999999650e+00 1.289800000000000113e-01 1.030836000000000041e+01 5.151449999999999640e+00 5.025730000000000253e+00 5.392229999999999634e+00 4.661920000000000286e+00 5.424750000000000405e+00 1.033985999999999983e+01 3.978439999999999976e+00 3.923700000000000188e+00 3.847879999999999967e+00 3.268549999999999844e+00 4.073669999999999902e+00 9.179220000000000823e+00 3.889419999999999877e+00 9.039419999999999789e+00 3.688870000000000093e+00 3.772899999999999920e+00 9.186529999999999418e+00 9.008850000000000691e+00 8.932420000000000471e+00 3.639060000000000183e+00 3.857009999999999827e+00 8.691549999999999443e+00 3.954410000000000203e+00 8.881500000000000838e+00 8.919909999999999783e+00 8.794620000000000104e+00 3.733369999999999855e+00 8.786020000000000607e+00 8.832340000000000302e+00 8.866619999999999280e+00 4.060959999999999681e+00 1.479020000000000001e+00 1.311120000000000063e+00 4.312160000000000437e+00 1.603520000000000056e+00 6.518169999999999575e+00 3.572589999999999932e+00 6.630499999999999616e+00 1.372889999999999944e+00 4.069499999999999673e+00 6.628350000000000186e+00 6.600869999999999571e+00 8.424780000000000157e+00 1.350749999999999895e+00 1.805530000000000079e+00 8.761079999999999757e+00 1.310959999999999903e+00 6.836000000000000298e+00 8.471259999999999124e+00 6.285230000000000317e+00 1.247519999999999962e+00 8.896770000000000067e+00 6.394639999999999880e+00 6.571200000000000152e+00 3.624400000000000066e+00 1.300170000000000048e+00 3.958130000000000148e+00 3.648449999999999971e+00 1.406090000000000062e+00 9.121209999999999596e+00 4.002449999999999619e+00 6.333190000000000097e+00 3.990409999999999791e+00 3.631590000000000096e+00 6.664990000000000414e+00 9.036020000000000607e+00 8.694819999999999993e+00 1.057129999999999903e+00 4.329170000000000407e+00 8.598950000000000315e+00 1.182979999999999920e+00 9.622600000000000264e+00 9.029090000000000060e+00 6.387270000000000003e+00 3.842429999999999790e+00 8.502159999999999940e+00 6.423770000000000202e+00 9.103410000000000224e+00 3.851830000000000087e+00 3.913089999999999957e+00 1.418099999999999916e+00 3.763549999999999951e+00 4.011770000000000280e+00 6.604540000000000077e+00 3.914870000000000072e+00 9.064059999999999562e+00 1.000760000000000094e+00 3.687440000000000051e+00 8.963649999999999451e+00 6.325560000000000294e+00 8.915419999999999234e+00 3.870460000000000012e+00 1.234969999999999901e+00 9.037459999999999383e+00 3.667100000000000026e+00 6.438030000000000364e+00 8.894849999999999923e+00 8.909420000000000783e+00 1.053350000000000009e+00 8.739509999999999224e+00 9.071500000000000341e+00 6.155409999999999826e+00 1.033639999999999892e+00 1.304030000000000022e+00 3.658380000000000187e+00 9.491300000000000292e-01 8.497799999999999798e-01 8.654569999999999652e+00 1.446110000000000007e+00 6.577309999999999768e+00 3.199450000000000127e+00 8.304099999999999815e-01 5.898909999999999876e+00 8.659159999999999968e+00 6.106119999999999770e+00 1.646190000000000042e+00 4.366360000000000241e+00 6.284609999999999808e+00 1.421240000000000059e+00 8.880440000000000111e+00 6.534430000000000405e+00 6.860839999999999606e+00 3.343150000000000066e+00 6.059289999999999843e+00 6.629620000000000068e+00 4.850900000000000212e-01 1.465160000000000018e+00 3.651060000000000194e+00 1.672539999999999916e+00 1.112729999999999997e+00 3.796400000000000219e+00 6.870739999999999625e+00 1.379099999999999993e+00 8.868930000000000646e+00 1.554000000000000048e+00 1.102789999999999937e+00 8.945819999999999439e+00 6.587119999999999642e+00 6.406410000000000160e+00 3.727629999999999999e+00 1.615739999999999954e+00 6.304929999999999701e+00 3.619159999999999933e+00 6.816300000000000026e+00 6.311720000000000219e+00 9.050390000000000157e+00 1.438090000000000090e+00 6.161469999999999558e+00 9.423400000000000887e+00 6.667930000000000135e+00 1.520029999999999992e+00 3.919459999999999944e+00 4.208300000000000374e+00 7.888699999999999601e-01 3.413190000000000168e+00 9.775339999999999918e+00 1.669650000000000079e+00 9.204390000000000072e+00 4.274169999999999803e+00 1.180060000000000109e+00 8.572570000000000690e+00 9.121589999999999421e+00 6.661749999999999616e+00 4.463300000000000267e+00 4.317660000000000053e+00 6.073210000000000441e+00 4.169030000000000236e+00 9.421490000000000364e+00 6.294170000000000265e+00 9.093220000000000525e+00 4.309560000000000279e+00 6.246389999999999887e+00 8.870100000000000762e+00 9.340500000000000469e+00 1.128670000000000062e+00 1.266580000000000039e+00 9.979799999999999782e-01 1.488590000000000080e+00 1.239160000000000039e+00 6.078280000000000349e+00 9.596099999999999630e-01 6.481150000000000411e+00 7.797500000000000542e-01 1.470529999999999893e+00 6.335810000000000386e+00 6.135440000000000005e+00
1.012104000000000070e+01 2.856189999999999785e+00 2.392009999999999970e+00 9.996950000000000003e+00 2.776289999999999925e+00 8.144909999999999428e+00 1.020864000000000082e+01 7.776880000000000237e+00 2.263830000000000009e+00 1.011364000000000019e+01 7.973410000000000331e+00 7.818240000000000300e+00 5.027470000000000105e+00 2.637150000000000105e+00 2.517609999999999904e+00 5.114150000000000418e+00 2.356329999999999814e+00 7.953520000000000145e+00 5.214660000000000295e+00 7.587390000000000079e+00 2.644639999999999880e+00 5.122200000000000308e+00 7.858249999999999957e+00 7.753669999999999618e+00 2.704099999999999948e+00 1.016680999999999990e+01 3.000900000000000123e+00 2.374719999999999942e+00 1.026171000000000078e+01 7.893679999999999808e+00 2.478969999999999896e+00 5.116469999999999629e+00 2.930950000000000166e+00 2.737049999999999983e+00 5.231690000000000396e+00 7.863579999999999792e+00 7.725819999999999688e+00 1.030971000000000082e+01 2.733919999999999906e+00 8.035819999999999297e+00 2.619099999999999762e-01 7.865590000000000082e+00 7.559770000000000323e+00 5.288369999999999571e+00 2.603829999999999867e+00 7.569810000000000372e+00 5.062750000000000306e+00 8.120050000000000878e+00 2.568499999999999783e+00 2.736029999999999962e+00 5.200029999999999930e+00 2.429230000000000000e+00 2.807539999999999925e+00 1.044139000000000017e+01 2.614409999999999901e+00 7.774160000000000181e+00 5.165460000000000385e+00 2.552630000000000177e+00 7.989510000000000112e+00 2.345299999999999885e-01 7.797699999999999854e+00 2.983119999999999994e+00 5.166470000000000340e+00 7.464190000000000325e+00 2.508779999999999788e+00 5.295800000000000507e-01 7.832060000000000244e+00 7.773249999999999993e+00 5.186700000000000088e+00 7.444700000000000095e+00 7.957399999999999807e+00 2.362900000000000000e-01 3.293000000000000094e-02 3.836600000000000010e-01 5.007240000000000357e+00 1.027323999999999948e+01 3.262499999999999845e-01 1.959400000000000031e-01 1.023564000000000007e+01 5.319469999999999921e+00 5.653450000000000308e+00 1.017093999999999987e+01 5.225069999999999659e+00 1.021429000000000009e+01 5.272759999999999891e+00 5.965000000000000163e-02 5.532289999999999708e+00 5.225600000000000023e+00 8.640000000000000457e-02 1.062668999999999997e+01 5.097229999999999706e+00 4.960169999999999746e+00 5.434960000000000235e+00 5.069589999999999819e+00 5.126240000000000130e+00 3.391000000000000264e-02 3.965300000000000047e+00 3.645439999999999792e+00 4.149409999999999599e+00 3.859869999999999912e+00 3.837909999999999933e+00 9.010149999999999437e+00 4.013860000000000205e+00 8.989399999999999835e+00 3.850719999999999921e+00 4.290099999999999802e+00 9.466580000000000439e+00 8.903389999999999915e+00 9.110620000000000829e+00 3.772310000000000052e+00 3.991330000000000044e+00 8.758029999999999760e+00 4.142369999999999663e+00 9.155310000000000059e+00 8.986000000000000654e+00 9.027879999999999683e+00 3.417499999999999982e+00 9.360030000000000072e+00 9.602940000000000254e+00 9.006899999999999906e+00 4.074729999999999741e+00 1.359809999999999963e+00 1.562009999999999899e+00 4.000339999999999563e+00 8.962900000000000311e-01 6.967690000000000161e+00 3.686230000000000118e+00 6.604809999999999626e+00 1.764489999999999892e+00 3.158920000000000172e+00 6.248260000000000147e+00 9.528980000000000672e+00 9.060790000000000788e+00 1.377429999999999932e+00 1.597620000000000040e+00 8.641909999999999314e+00 1.933559999999999945e+00 6.966529999999999667e+00 8.669230000000000658e+00 6.386580000000000368e+00 3.883399999999999963e+00 9.094530000000000669e+00 7.092459999999999987e+00 6.399300000000000210e+00 3.815910000000000135e+00 1.234390000000000098e+00 4.253300000000000303e+00 3.656260000000000066e+00 1.451840000000000019e+00 9.459600000000000009e+00 3.972609999999999975e+00 6.274200000000000443e+00 4.148500000000000298e+00 5.720489999999999853e+00 6.913520000000000110e+00 9.512349999999999639e+00 8.669460000000000832e+00 1.338659999999999961e+00 4.163210000000000299e+00 8.798289999999999722e+00 1.470879999999999965e+00 9.541560000000000485e+00 6.533199999999999896e+00 6.749530000000000030e+00 6.339550000000000018e+00 8.514110000000000511e+00 6.800569999999999560e+00 8.907830000000000581e+00 3.617869999999999919e+00 4.055939999999999657e+00 1.182860000000000023e+00 3.718140000000000001e+00 3.783430000000000071e+00 6.437120000000000175e+00 4.044089999999999741e+00 9.113970000000000127e+00 1.284990000000000077e+00 3.844949999999999868e+00 8.621959999999999624e+00 6.243750000000000355e+00 8.839249999999999829e+00 3.807220000000000049e+00 1.199969999999999981e+00 8.675349999999999895e+00 4.435620000000000118e+00 6.574270000000000280e+00 8.541919999999999291e+00 6.355260000000000353e+00 1.125229999999999952e+00 9.237019999999999342e+00 9.565279999999999561e+00 6.586540000000000283e+00 1.210469999999999935e+00 1.482939999999999925e+00 3.687679999999999847e+00 1.108349999999999946e+00 1.596170000000000089e+00 9.079090000000000771e+00 1.203130000000000033e+00 6.827919999999999767e+00 3.351140000000000008e+00 7.604899999999999993e-01 6.287910000000000110e+00 8.299289999999999168e+00 6.407980000000000231e+00 1.530159999999999965e+00 6.099800000000000111e+00 6.391350000000000087e+00 1.349690000000000056e+00 9.095890000000000697e+00 6.360629999999999562e+00 9.054230000000000445e+00 1.504950000000000010e+00 3.988459999999999894e+00 6.372880000000000322e+00 6.779480000000000395e+00 1.101120000000000099e+00 4.251159999999999606e+00 1.627289999999999903e+00 9.239199999999999635e-01 3.516420000000000101e+00 6.805320000000000036e+00 1.419300000000000006e+00 9.301709999999999923e+00 1.401100000000000012e+00 1.659750000000000059e+00 8.342299999999999827e+00 7.168630000000000280e+00 6.409900000000000375e+00 3.922979999999999912e+00 1.711149999999999949e+00 6.280289999999999928e+00 3.883199999999999985e+00 6.690559999999999619e+00 9.080299999999999372e+00 8.999890000000000612e+00 9.086199999999999832e-01 6.320299999999999585e+00 9.479490000000000194e+00 7.183910000000000018e+00 1.496750000000000025e+00 4.098729999999999762e+00 4.192429999999999879e+00 1.266429999999999945e+00 4.072809999999999597e+00 9.459149999999999281e+00 1.127920000000000034e+00 9.196160000000000778e+00 4.390520000000000422e+00 1.574859999999999927e+00 9.313900000000000290e+00 9.546699999999999520e+00 6.410549999999999748e+00 3.967340000000000089e+00 3.995220000000000216e+00 6.355850000000000222e+00 3.945199999999999818e+00 9.710539999999999949e+00 6.459679999999999644e+00 9.257960000000000633e+00 4.356900000000000439e+00 6.927730000000000388e+00 9.448470000000000368e+00 9.662300000000000111e+00 1.168449999999999989e+00 1.775150000000000006e+00 9.201300000000000034e-01 1.353750000000000009e+00 1.150700000000000056e+00 6.355050000000000310e+00 8.670499999999999874e-01 6.826889999999999681e+00 6.259299999999999864e-01 1.841949999999999976e+00 6.005180000000000184e+00 5.790119999999999933e+00
-8.559999999999999901e-03 2.411739999999999995e+00 2.291999999999999815e+00 2.101600000000000135e-01 3.063009999999999788e+00 7.879010000000000069e+00 1.325999999999999922e-02 7.791870000000000296e+00 3.284990000000000077e+00 1.012399999999999967e-01 8.242290000000000560e+00 8.114240000000000563e+00 5.450339999999999741e+00 2.453669999999999796e+00 2.374750000000000139e+00 5.725060000000000038e+00 2.473409999999999886e+00 7.855100000000000193e+00 5.260869999999999713e+00 7.915420000000000122e+00 3.292499999999999982e+00 5.075380000000000003e+00 8.141890000000000072e+00 8.283759999999999124e+00 2.974860000000000060e+00 3.643700000000000272e-01 3.382400000000000073e+00 2.885079999999999867e+00 2.832000000000000073e-01 8.173750000000000071e+00 2.300440000000000040e+00 5.304219999999999935e+00 2.711609999999999854e+00 2.653439999999999799e+00 4.905780000000000030e+00 7.639400000000000190e+00 7.805130000000000123e+00 1.025652000000000008e+01 2.525469999999999882e+00 8.720769999999999911e+00 3.727199999999999958e-01 8.194029999999999703e+00 7.728769999999999918e+00 5.505469999999999864e+00 2.749550000000000161e+00 8.030910000000000437e+00 5.451699999999999768e+00 8.149160000000000181e+00 2.456409999999999982e+00 2.894070000000000142e+00 4.946810000000000151e+00 2.707419999999999938e+00 2.881590000000000096e+00 1.023804999999999943e+01 2.378060000000000063e+00 7.333630000000000315e+00 5.718370000000000175e+00 2.202350000000000030e+00 8.233670000000000044e+00 1.273000000000000000e-02 8.130280000000000840e+00 2.149329999999999963e+00 4.856279999999999930e+00 7.822560000000000180e+00 2.719720000000000137e+00 1.069774999999999920e+01 8.061070000000000846e+00 8.177170000000000272e+00 5.862199999999999633e+00 7.243470000000000297e+00 7.683449999999999669e+00 8.461000000000000465e-02 2.102900000000000047e-01 2.231999999999999956e-02 5.419030000000000236e+00 2.505899999999999794e-01 6.005300000000000082e-01 1.069524999999999970e+01 9.935520000000000351e+00 5.307789999999999786e+00 5.412329999999999863e+00 1.025239999999999974e+01 5.412939999999999863e+00 1.068035000000000068e+01 5.370510000000000339e+00 2.361699999999999910e-01 5.403410000000000046e+00 5.229149999999999743e+00 1.035271999999999970e+01 1.074235000000000007e+01 5.186499999999999666e+00 5.545370000000000132e+00 5.502150000000000318e+00 4.417290000000000383e+00 5.734119999999999884e+00 1.073085000000000022e+01 3.792460000000000164e+00 3.680629999999999846e+00 3.659819999999999851e+00 3.719930000000000181e+00 3.993160000000000043e+00 9.114330000000000709e+00 3.816570000000000018e+00 9.541140000000000398e+00 7.063159999999999883e+00 3.286690000000000111e+00 7.184249999999999581e+00 9.316369999999999152e+00 9.210679999999999978e+00 3.619149999999999867e+00 3.990260000000000140e+00 8.121409999999999130e+00 4.471189999999999998e+00 9.836539999999999395e+00 9.301880000000000592e+00 9.357350000000000279e+00 7.218169999999999753e+00 9.588960000000000150e+00 9.873129999999999740e+00 9.567750000000000199e+00 6.659329999999999750e+00 9.296879999999999811e+00 9.397030000000000882e+00 4.280680000000000263e+00 1.349760000000000071e+00 7.264210000000000278e+00 1.375690000000000079e+00 9.874990000000000379e+00 8.319199999999999928e-01 4.910800000000000165e-01 7.298510000000000275e+00 1.023995000000000033e+01 9.184599999999999653e+00 1.076910000000000034e+00 1.223470000000000057e+00 9.381610000000000227e+00 1.470579999999999998e+00 6.492429999999999701e+00 8.546969999999999956e+00 5.911340000000000039e+00 9.346999999999999753e-01 6.622539999999999871e+00 6.745029999999999859e+00 4.595049999999999635e+00 3.786189999999999944e+00 1.244709999999999983e+00 4.861539999999999750e+00 4.453940000000000232e+00 6.207700000000000440e-01 2.166249999999999787e+00 3.514079999999999870e+00 6.824329999999999785e+00 4.277449999999999974e+00 3.874070000000000125e+00 6.484539999999999971e+00 6.881999999999999673e+00 9.279600000000000293e+00 7.798199999999999577e-01 3.758399999999999963e+00 9.540720000000000312e+00 1.851350000000000051e+00 9.431160000000000210e+00 9.139680000000000248e+00 6.760489999999999888e+00 6.655979999999999563e+00 8.904299999999999216e+00 6.716310000000000002e+00 9.280630000000000379e+00 3.273070000000000146e+00 6.726020000000000110e+00 1.197640000000000038e+00 4.053700000000000081e+00 3.995080000000000187e+00 6.363400000000000389e+00 4.269630000000000258e+00 9.422420000000000684e+00 4.267879999999999896e+00 3.821410000000000196e+00 1.258639999999999981e+00 1.020431999999999917e+01 9.621409999999999130e+00 3.781359999999999832e+00 1.314210000000000100e+00 9.161039999999999850e+00 4.201220000000000176e+00 6.898760000000000225e+00 9.508900000000000574e+00 8.901759999999999451e+00 4.736880000000000202e+00 6.624830000000000219e+00 9.526189999999999714e+00 6.443900000000000183e+00 1.437689999999999912e+00 1.498950000000000005e+00 4.223480000000000345e+00 1.541020000000000056e+00 1.448450000000000015e+00 9.217549999999999244e+00 1.085839999999999916e+00 6.246000000000000441e+00 7.327189999999999870e+00 3.287499999999999867e-01 6.542200000000000237e+00 1.987989999999999924e+00 6.474870000000000125e+00 1.400039999999999951e+00 8.026499999999999746e-01 7.127830000000000332e+00 1.792720000000000091e+00 8.689120000000000843e+00 9.162169999999999703e+00 6.271790000000000198e+00 3.956529999999999880e+00 5.897120000000000140e+00 6.749629999999999797e+00 9.790210000000000079e+00 1.690600000000000103e+00 1.921640000000000015e+00 1.275179999999999980e+00 1.122330000000000050e+00 3.757629999999999804e+00 6.375009999999999621e+00 1.768210000000000059e+00 9.311439999999999273e+00 8.832240000000000535e+00 1.533840000000000092e+00 9.341839999999999478e+00 4.055399999999999672e+00 6.921660000000000146e+00 3.918860000000000010e+00 1.751130000000000075e+00 6.498059999999999725e+00 7.251120000000000232e+00 7.406729999999999592e+00 6.291529999999999845e+00 6.690489999999999604e+00 1.879520000000000080e+00 6.473779999999999646e+00 4.403599999999999959e+00 6.606399999999999828e+00 1.152470000000000105e+00 3.856209999999999916e+00 3.617719999999999825e+00 8.777599999999999847e-01 3.950639999999999930e+00 9.545769999999999200e+00 1.168649999999999967e+00 6.103839999999999932e+00 4.746059999999999945e+00 1.181040000000000090e+00 8.625130000000000408e+00 6.442249999999999588e+00 6.664830000000000254e+00 1.766809999999999992e+00 6.052319999999999922e+00 4.023189999999999600e+00 4.027840000000000309e+00 8.073599999999999666e-01 6.443249999999999922e+00 1.469549999999999912e+00 3.825569999999999915e+00 6.518290000000000362e+00 9.362040000000000362e+00 1.079429999999999890e+00 8.867699999999999250e+00 8.781890000000000640e+00 2.066899999999999959e+00 1.712720000000000020e+00 8.669099999999999584e-01 6.509789999999999743e+00 1.716469999999999940e+00 4.631639999999999979e+00 1.027670000000000083e+00 6.835899999999999643e+00 9.113659999999999428e+00 3.949619999999999909e+00
1.164199999999999957e-01 2.669360000000000177e+00 2.620719999999999938e+00 8.969000000000000583e-02 2.752339999999999787e+00 7.724140000000000228e+00 -4.082000000000000212e-02 7.911030000000000229e+00 2.893260000000000165e+00 9.696099999999999497e+00 7.846639999999999837e+00 7.892459999999999809e+00 5.279670000000000307e+00 2.822950000000000070e+00 2.632089999999999819e+00 5.096350000000000158e+00 2.818369999999999820e+00 7.887880000000000003e+00 5.242840000000000167e+00 7.735870000000000246e+00 2.729620000000000157e+00 4.851230000000000153e+00 7.905280000000000307e+00 8.147949999999999804e+00 2.734770000000000145e+00 1.028945000000000043e+01 2.447630000000000194e+00 2.555829999999999824e+00 2.926300000000000012e-01 7.635040000000000049e+00 2.464319999999999844e+00 5.077110000000000234e+00 2.627330000000000165e+00 2.355269999999999975e+00 5.423510000000000275e+00 8.081910000000000593e+00 7.932409999999999961e+00 1.659400000000000042e-01 2.829649999999999999e+00 7.793800000000000061e+00 1.932699999999999974e-01 8.058909999999999130e+00 7.714220000000000077e+00 5.137220000000000120e+00 2.480199999999999960e+00 7.466719999999999580e+00 4.920639999999999681e+00 8.121280000000000499e+00 2.783650000000000180e+00 2.522810000000000219e+00 4.775549999999999962e+00 2.521920000000000162e+00 2.882420000000000204e+00 1.035666999999999938e+01 2.687030000000000030e+00 7.669929999999999914e+00 5.102929999999999744e+00 2.306109999999999882e+00 7.886070000000000135e+00 1.037677000000000049e+01 7.714590000000000281e+00 2.994889999999999830e+00 4.881789999999999630e+00 7.775629999999999598e+00 2.502940000000000165e+00 1.039626999999999946e+01 7.626540000000000319e+00 7.625869999999999926e+00 5.338370000000000282e+00 7.319079999999999586e+00 7.811980000000000146e+00 1.760599999999999943e-01 7.814999999999999725e-02 1.021395000000000053e+01 5.533389999999999809e+00 1.002777000000000029e+01 1.018224999999999980e+01 3.769600000000000173e-01 2.045599999999999918e-01 5.161469999999999558e+00 5.584520000000000373e+00 1.000979000000000063e+01 5.308919999999999639e+00 1.105300000000000032e-01 5.239020000000000010e+00 5.838000000000000134e-02 5.719319999999999737e+00 5.266829999999999679e+00 2.114499999999999991e-01 3.878999999999999809e-02 4.939589999999999925e+00 5.369699999999999918e+00 5.588230000000000253e+00 5.145319999999999894e+00 5.333009999999999806e+00 1.395500000000000074e-01 3.683120000000000172e+00 3.435470000000000024e+00 3.162469999999999892e+00 3.461599999999999788e+00 4.017820000000000391e+00 8.710910000000000153e+00 3.549570000000000114e+00 8.645490000000000563e+00 3.287640000000000118e+00 3.210920000000000218e+00 8.884380000000000166e+00 8.602940000000000254e+00 9.019040000000000390e+00 4.086719999999999686e+00 3.840090000000000003e+00 8.737539999999999196e+00 3.729709999999999859e+00 8.951520000000000366e+00 8.489309999999999690e+00 8.800060000000000215e+00 3.885629999999999917e+00 8.457179999999999254e+00 8.759650000000000603e+00 9.095670000000000144e+00 4.284799999999999720e+00 1.137539999999999996e+00 1.856109999999999927e+00 4.329920000000000435e+00 1.108130000000000059e+00 7.380919999999999703e+00 4.043599999999999639e+00 6.478180000000000049e+00 1.780810000000000004e+00 3.709960000000000147e+00 6.715830000000000410e+00 6.578350000000000364e+00 9.154840000000000089e+00 1.407729999999999926e+00 1.447219999999999951e+00 8.721819999999999240e+00 1.343190000000000106e+00 6.779989999999999739e+00 9.293889999999999318e+00 6.262129999999999974e+00 2.182209999999999983e+00 8.332069999999999865e+00 6.450669999999999682e+00 7.239720000000000155e+00 4.199480000000000324e+00 1.230310000000000015e+00 4.239160000000000039e+00 4.422119999999999607e+00 1.980280000000000040e+00 9.897729999999999251e+00 3.706939999999999902e+00 5.885839999999999961e+00 4.178650000000000198e+00 3.591720000000000024e+00 6.412029999999999674e+00 9.448410000000000863e+00 9.082509999999999195e+00 1.477819999999999911e+00 3.861460000000000115e+00 9.057370000000000587e+00 7.811900000000000510e-01 9.659739999999999327e+00 9.248440000000000438e+00 6.699089999999999989e+00 4.689440000000000275e+00 8.654790000000000205e+00 6.460729999999999862e+00 9.990080000000000737e+00 3.430890000000000217e+00 4.385270000000000223e+00 1.003749999999999920e+00 3.880320000000000213e+00 3.732709999999999972e+00 6.135270000000000223e+00 3.543489999999999807e+00 9.212730000000000530e+00 6.828400000000000025e-01 3.376679999999999904e+00 9.355199999999999960e+00 5.971219999999999750e+00 8.655150000000000787e+00 4.068209999999999660e+00 8.959399999999999586e-01 9.242089999999999250e+00 3.664779999999999927e+00 6.365910000000000402e+00 8.890370000000000772e+00 8.817449999999999122e+00 1.276759999999999895e+00 8.763730000000000686e+00 9.030049999999999244e+00 6.473589999999999733e+00 1.656509999999999927e+00 1.420739999999999892e+00 3.313239999999999963e+00 1.707039999999999891e+00 1.610849999999999893e+00 8.812620000000000786e+00 1.124149999999999983e+00 6.646910000000000096e+00 3.785019999999999829e+00 8.975199999999999845e-01 6.576399999999999579e+00 9.011559999999999349e+00 6.639359999999999928e+00 1.303840000000000110e+00 4.369629999999999903e+00 6.572350000000000136e+00 1.251689999999999969e+00 9.070009999999999906e+00 6.549050000000000260e+00 6.374270000000000103e+00 3.586580000000000101e+00 6.127790000000000070e+00 6.503639999999999866e+00 9.054610000000000269e+00 9.337699999999999889e-01 4.057179999999999787e+00 1.476320000000000077e+00 1.196649999999999991e+00 4.138799999999999812e+00 6.993430000000000035e+00 1.211659999999999959e+00 9.277459999999999596e+00 1.687519999999999909e+00 6.726199999999999957e-01 9.448750000000000426e+00 7.243430000000000035e+00 6.324110000000000120e+00 4.119989999999999597e+00 1.332750000000000101e+00 6.454920000000000435e+00 3.633809999999999985e+00 6.672430000000000305e+00 6.212810000000000166e+00 9.056789999999999452e+00 1.584649999999999892e+00 6.009769999999999612e+00 9.001590000000000202e+00 6.975209999999999688e+00 1.343320000000000070e+00 3.907890000000000086e+00 4.180250000000000021e+00 9.844699999999999562e-01 4.075149999999999828e+00 9.545189999999999841e+00 1.150859999999999994e+00 9.007669999999999177e+00 4.338230000000000253e+00 6.104100000000000081e-01 8.726499999999999702e+00 1.005575999999999937e+01 6.136630000000000251e+00 3.994460000000000122e+00 4.245899999999999785e+00 5.918160000000000309e+00 3.905499999999999972e+00 9.308899999999999508e+00 5.960200000000000387e+00 8.921519999999999229e+00 4.445549999999999891e+00 5.796369999999999578e+00 9.135630000000000805e+00 9.481669999999999376e+00 1.500369999999999981e+00 1.082030000000000047e+00 6.799100000000000144e-01 1.600009999999999932e+00 1.439340000000000064e+00 6.005429999999999602e+00 1.592039999999999900e+00 6.323730000000000295e+00 9.831299999999999484e-01 1.017290000000000028e+00 6.710329999999999906e+00 6.557920000000000194e+00