1.032533097199999972e+01 0.000000000000000000e+00 0.000000000000000000e+00 -5.286761000000000238e-02 1.034942947100000055e+01 0.000000000000000000e+00 -5.797315599999999791e-02 3.989898199999999950e-02 1.077492443599999916e+01
1.017129232399999950e+01 0.000000000000000000e+00 0.000000000000000000e+00 -5.207890300000000278e-02 1.019503130999999918e+01 0.000000000000000000e+00 -5.710828300000000274e-02 3.930374899999999894e-02 1.061417851899999931e+01
1.032806073399999924e+01 0.000000000000000000e+00 0.000000000000000000e+00 -5.288158700000000073e-02 1.035216560399999963e+01 0.000000000000000000e+00 -5.798848300000000039e-02 3.990953099999999809e-02 1.077777305899999938e+01
1.034100013599999990e+01 0.000000000000000000e+00 0.000000000000000000e+00 -5.294783899999999655e-02 1.036513520599999971e+01 0.000000000000000000e+00 -5.806113300000000088e-02 3.995953099999999952e-02 1.079127587800000043e+01
1.019966206399999997e+01 0.000000000000000000e+00 0.000000000000000000e+00 -5.222416199999999759e-02 1.022346726299999986e+01 0.000000000000000000e+00 -5.726756899999999734e-02 3.941337500000000049e-02 1.064378355600000070e+01
1.035180858600000064e+01 0.000000000000000000e+00 0.000000000000000000e+00 -5.300317999999999696e-02 1.037596888200000045e+01 0.000000000000000000e+00 -5.812181899999999818e-02 4.000129699999999816e-02 1.080255495799999998e+01
1.024768498299999919e+01 0.000000000000000000e+00 0.000000000000000000e+00 7.697830499999999687e-02 1.032456130199999933e+01 0.000000000000000000e+00 -2.351509200000000133e-02 9.974878600000000595e-02 1.067840159400000033e+01
1.036319950899999931e+01 0.000000000000000000e+00 0.000000000000000000e+00 -5.306150400000000239e-02 1.038738639099999972e+01 0.000000000000000000e+00 -5.818577500000000208e-02 4.004531399999999852e-02 1.081444187299999982e+01
1.027757898599999997e+01 0.000000000000000000e+00 0.000000000000000000e+00 -5.262311100000000019e-02 1.030156603600000054e+01 0.000000000000000000e+00 -5.770504600000000289e-02 3.971446000000000004e-02 1.072509319599999955e+01
1.033212662500000079e+01 0.000000000000000000e+00 0.000000000000000000e+00 -5.290240499999999957e-02 1.035624098499999945e+01 0.000000000000000000e+00 -5.801131200000000238e-02 3.992524199999999968e-02 1.078201599099999974e+01
1.034188577399999964e+01 0.000000000000000000e+00 0.000000000000000000e+00 7.768592000000000553e-02 1.041946877100000002e+01 0.000000000000000000e+00 -2.373125200000000129e-02 1.006657160000000023e-01 1.077656170300000049e+01
1.037840404800000016e+01 0.000000000000000000e+00 0.000000000000000000e+00 7.796023800000000115e-02 1.045626099799999942e+01 0.000000000000000000e+00 -2.381505000000000080e-02 1.010211770000000037e-01 1.081461486200000088e+01
1.023624980299999976e+01 0.000000000000000000e+00 0.000000000000000000e+00 -5.241149800000000081e-02 1.026014039400000044e+01 0.000000000000000000e+00 -5.747299699999999789e-02 3.955475600000000341e-02 1.068196442600000040e+01
1.026408097300000044e+01 0.000000000000000000e+00 0.000000000000000000e+00 7.710146800000000633e-02 1.034108029299999920e+01 0.000000000000000000e+00 -2.355271600000000132e-02 9.990838100000000443e-02 1.069548671799999973e+01
1.009246906899999985e+01 0.000000000000000000e+00 0.000000000000000000e+00 7.581235799999999636e-02 1.016818098599999942e+01 0.000000000000000000e+00 -2.315892199999999845e-02 9.823794700000000601e-02 1.051666185800000086e+01
1.024616931000000086e+01 0.000000000000000000e+00 0.000000000000000000e+00 7.696691999999999423e-02 1.032303425799999985e+01 0.000000000000000000e+00 -2.351161400000000012e-02 9.973403200000000024e-02 1.067682221499999962e+01
1.033840742199999951e+01 0.000000000000000000e+00 0.000000000000000000e+00 7.765979200000000526e-02 1.041596432499999914e+01 0.000000000000000000e+00 -2.372327100000000064e-02 1.006318590000000041e-01 1.077293715300000088e+01
1.024451270399999991e+01 0.000000000000000000e+00 0.000000000000000000e+00 7.695447599999999388e-02 1.032136522499999920e+01 0.000000000000000000e+00 -2.350781299999999893e-02 9.971790699999999452e-02 1.067509598100000012e+01
1.022483498599999940e+01 0.000000000000000000e+00 0.000000000000000000e+00 7.680666099999999830e-02 1.030153988800000064e+01 0.000000000000000000e+00 -2.346265900000000029e-02 9.952636900000000342e-02 1.065459119600000015e+01
1.041802367400000051e+01 0.000000000000000000e+00 0.000000000000000000e+00 -5.334221399999999891e-02 1.044233851100000088e+01 0.000000000000000000e+00 -5.849359400000000292e-02 4.025716399999999806e-02 1.087165323400000005e+01
1.027112976899999985e+01 0.000000000000000000e+00 0.000000000000000000e+00 7.715441700000000291e-02 1.034818196700000037e+01 0.000000000000000000e+00 -2.356888999999999859e-02 9.997699200000000064e-02 1.070283177900000027e+01
1.019470592899999950e+01 0.000000000000000000e+00 0.000000000000000000e+00 7.658033899999999727e-02 1.027118480899999931e+01 0.000000000000000000e+00 -2.339352199999999993e-02 9.923309900000000516e-02 1.062319579699999927e+01
1.025897004599999995e+01 0.000000000000000000e+00 0.000000000000000000e+00 -5.252782899999999811e-02 1.028291366500000059e+01 0.000000000000000000e+00 -5.760056300000000046e-02 3.964255199999999757e-02 1.070567397199999959e+01
1.027072459000000038e+01 0.000000000000000000e+00 0.000000000000000000e+00 7.715137399999999479e-02 1.034777374799999983e+01 0.000000000000000000e+00 -2.356795999999999891e-02 9.997304799999999492e-02 1.070240956900000029e+01
1.022555861800000088e+01 0.000000000000000000e+00 0.000000000000000000e+00 7.681209699999999585e-02 1.030226894900000012e+01 0.000000000000000000e+00 -2.346431900000000084e-02 9.953341200000000166e-02 1.065534524299999930e+01
1.021569480600000013e+01 0.000000000000000000e+00 0.000000000000000000e+00 7.673800199999999960e-02 1.029233114100000002e+01 0.000000000000000000e+00 -2.344168500000000030e-02 9.943739999999999524e-02 1.064506684900000089e+01
1.037124311100000007e+01 0.000000000000000000e+00 0.000000000000000000e+00 7.790644600000000419e-02 1.044904634200000082e+01 0.000000000000000000e+00 -2.379861800000000055e-02 1.009514739999999994e-01 1.080715294700000051e+01
1.027718640900000047e+01 0.000000000000000000e+00 0.000000000000000000e+00 7.719991299999999501e-02 1.035428404299999983e+01 0.000000000000000000e+00 -2.358278800000000036e-02 1.000359460000000006e-01 1.070914298299999956e+01
1.037288549199999999e+01 0.000000000000000000e+00 0.000000000000000000e+00 7.791878300000000535e-02 1.045070104300000047e+01 0.000000000000000000e+00 -2.380238599999999830e-02 1.009674609999999945e-01 1.080886435799999923e+01
1.026388948499999998e+01 0.000000000000000000e+00 0.000000000000000000e+00 -5.255301799999999995e-02 1.028784458500000021e+01 0.000000000000000000e+00 -5.762818399999999897e-02 3.966156099999999796e-02 1.071080761700000039e+01
1.025599688700000023e+01 0.000000000000000000e+00 0.000000000000000000e+00 -5.251260600000000334e-02 1.027993356700000049e+01 0.000000000000000000e+00 -5.758387000000000228e-02 3.963106300000000110e-02 1.070257135299999973e+01
1.032455141600000026e+01 0.000000000000000000e+00 0.000000000000000000e+00 7.755570900000000045e-02 1.040200437400000055e+01 0.000000000000000000e+00 -2.369147500000000003e-02 1.004969869999999960e-01 1.075849877099999929e+01
1.022613808200000030e+01 0.000000000000000000e+00 0.000000000000000000e+00 7.681644999999999446e-02 1.030285276100000047e+01 0.000000000000000000e+00 -2.346564900000000162e-02 9.953905300000000234e-02 1.065594906299999955e+01
1.020492107599999976e+01 0.000000000000000000e+00 0.000000000000000000e+00 7.665707200000000665e-02 1.028147658800000031e+01 0.000000000000000000e+00 -2.341696299999999897e-02 9.933253100000000169e-02 1.063384029300000044e+01
1.024274569299999982e+01 0.000000000000000000e+00 0.000000000000000000e+00 7.694120200000000021e-02 1.031958495800000009e+01 0.000000000000000000e+00 -2.350375799999999959e-02 9.970070799999999900e-02 1.067325470199999948e+01
1.023382062800000014e+01 0.000000000000000000e+00 0.000000000000000000e+00 7.687415899999999747e-02 1.031059293899999929e+01 0.000000000000000000e+00 -2.348327799999999979e-02 9.961383299999999885e-02 1.066395451100000002e+01
1.003966868200000029e+01 0.000000000000000000e+00 0.000000000000000000e+00 7.541573399999999816e-02 1.011498450000000027e+01 0.000000000000000000e+00 -2.303776299999999930e-02 9.772399900000000583e-02 1.046164223799999959e+01
1.008332461700000060e+01 0.000000000000000000e+00 0.000000000000000000e+00 7.574366700000000063e-02 1.015896793399999964e+01 0.000000000000000000e+00 -2.313793899999999973e-02 9.814893700000000554e-02 1.050713305899999916e+01
1.029706887200000054e+01 0.000000000000000000e+00 0.000000000000000000e+00 -5.272290200000000204e-02 1.032110141000000070e+01 0.000000000000000000e+00 -5.781447499999999712e-02 3.978977300000000050e-02 1.074543172599999963e+01
1.038256853999999940e+01 0.000000000000000000e+00 0.000000000000000000e+00 -5.316067700000000340e-02 1.040680062700000086e+01 0.000000000000000000e+00 -5.829452599999999929e-02 4.012015900000000246e-02 1.083465428499999916e+01
1.022152540799999976e+01 0.000000000000000000e+00 0.000000000000000000e+00 -5.233610600000000029e-02 1.024538163399999924e+01 0.000000000000000000e+00 -5.739032399999999950e-02 3.949785900000000322e-02 1.066659889099999958e+01
1.027784436600000006e+01 0.000000000000000000e+00 0.000000000000000000e+00 7.720485600000000226e-02 1.035494693499999919e+01 0.000000000000000000e+00 -2.358429800000000007e-02 1.000423510000000016e-01 1.070982859399999931e+01
1.012706538199999962e+01 0.000000000000000000e+00 0.000000000000000000e+00 7.607223800000000036e-02 1.020303683500000069e+01 0.000000000000000000e+00 -2.323831000000000160e-02 9.857470000000000121e-02 1.055271227599999939e+01
1.038231654299999995e+01 0.000000000000000000e+00 0.000000000000000000e+00 -5.315938600000000291e-02 1.040654804200000072e+01 0.000000000000000000e+00 -5.829311100000000162e-02 4.011918500000000165e-02 1.083439131599999961e+01
1.042186908699999925e+01 0.000000000000000000e+00 0.000000000000000000e+00 -5.336190300000000220e-02 1.044619289899999970e+01 0.000000000000000000e+00 -5.851518499999999734e-02 4.027202399999999655e-02 1.087566608700000081e+01
1.047262370600000025e+01 0.000000000000000000e+00 0.000000000000000000e+00 7.866799400000000497e-02 1.055118747500000076e+01 0.000000000000000000e+00 -2.403125299999999895e-02 1.019382910000000003e-01 1.091279463100000058e+01
1.033709274299999947e+01 0.000000000000000000e+00 0.000000000000000000e+00 7.764991599999999938e-02 1.041463978400000023e+01 0.000000000000000000e+00 -2.372025399999999964e-02 1.006190619999999952e-01 1.077156721799999950e+01
1.035251751500000061e+01 0.000000000000000000e+00 0.000000000000000000e+00 7.776578400000000446e-02 1.043018026999999925e+01 0.000000000000000000e+00 -2.375564900000000021e-02 1.007692030000000016e-01 1.078764030299999988e+01
1.007086345099999924e+01 0.000000000000000000e+00 0.000000000000000000e+00 7.565006200000000403e-02 1.014641328699999967e+01 0.000000000000000000e+00 -2.310934400000000041e-02 9.802764199999999817e-02 1.049414814200000023e+01
1.014752295199999921e+01 0.000000000000000000e+00 0.000000000000000000e+00 -5.195720000000000199e-02 1.017120646200000067e+01 0.000000000000000000e+00 -5.697482599999999925e-02 3.921190000000000092e-02 1.058937416300000045e+01
1.025791539699999966e+01 0.000000000000000000e+00 0.000000000000000000e+00 7.705515400000000070e-02 1.033486846299999939e+01 0.000000000000000000e+00 -2.353856799999999930e-02 9.984836599999999396e-02 1.068906199799999968e+01
1.030593344699999925e+01 0.000000000000000000e+00 0.000000000000000000e+00 -5.276829100000000189e-02 1.032998667400000059e+01 0.000000000000000000e+00 -5.786424600000000112e-02 3.982402699999999796e-02 1.075468228899999978e+01
1.019603262200000060e+01 0.000000000000000000e+00 0.000000000000000000e+00 7.659030399999999794e-02 1.027252145399999961e+01 0.000000000000000000e+00 -2.339656700000000006e-02 9.924601299999999404e-02 1.062457825100000086e+01
1.029992011699999921e+01 0.000000000000000000e+00 0.000000000000000000e+00 -5.273750099999999913e-02 1.032395930899999925e+01 0.000000000000000000e+00 -5.783048300000000197e-02 3.980079000000000256e-02 1.074840712099999962e+01
1.027614984200000059e+01 0.000000000000000000e+00 0.000000000000000000e+00 -5.261579300000000098e-02 1.030013355700000055e+01 0.000000000000000000e+00 -5.769702100000000111e-02 3.970893799999999918e-02 1.072360182299999920e+01
1.037272296000000082e+01 0.000000000000000000e+00 0.000000000000000000e+00 7.791756199999999577e-02 1.045053729199999992e+01 0.000000000000000000e+00 -2.380201300000000034e-02 1.009658789999999945e-01 1.080869499499999975e+01
1.029539026700000015e+01 0.000000000000000000e+00 0.000000000000000000e+00 -5.271430800000000139e-02 1.031941888699999943e+01 0.000000000000000000e+00 -5.780504999999999671e-02 3.978328600000000104e-02 1.074368002900000008e+01
1.028366533199999999e+01 0.000000000000000000e+00 0.000000000000000000e+00 7.724858199999999619e-02 1.036081156900000089e+01 0.000000000000000000e+00 -2.359765499999999863e-02 1.000990110000000016e-01 1.071589421900000083e+01
1.014091457900000037e+01 0.000000000000000000e+00 0.000000000000000000e+00 7.617627000000000426e-02 1.021698992600000011e+01 0.000000000000000000e+00 -2.327008900000000075e-02 9.870950500000000294e-02 1.056714356300000013e+01
1.019929883000000004e+01 0.000000000000000000e+00 0.000000000000000000e+00 7.661483900000000402e-02 1.027581216499999961e+01 0.000000000000000000e+00 -2.340406199999999978e-02 9.927780499999999675e-02 1.062798174099999926e+01
1.029766290100000070e+01 0.000000000000000000e+00 0.000000000000000000e+00 7.735372799999999660e-02 1.037491414600000006e+01 0.000000000000000000e+00 -2.362977499999999870e-02 1.002352600000000066e-01 1.073048011500000065e+01
1.020333282600000047e+01 0.000000000000000000e+00 0.000000000000000000e+00 -5.224295699999999959e-02 1.022714659100000034e+01 0.000000000000000000e+00 -5.728817900000000157e-02 3.942755900000000091e-02 1.064761415299999925e+01
1.023731302200000037e+01 0.000000000000000000e+00 0.000000000000000000e+00 7.690039299999999745e-02 1.031411153300000016e+01 0.000000000000000000e+00 -2.349129200000000042e-02 9.964782699999999438e-02 1.066759369300000060e+01
1.012888383099999956e+01 0.000000000000000000e+00 0.000000000000000000e+00 -5.186176399999999770e-02 1.015252383900000055e+01 0.000000000000000000e+00 -5.687017400000000250e-02 3.913987499999999758e-02 1.056992344300000042e+01
1.018041859000000038e+01 0.000000000000000000e+00 0.000000000000000000e+00 -5.212563099999999866e-02 1.020417887600000029e+01 0.000000000000000000e+00 -5.715952400000000322e-02 3.933901399999999854e-02 1.062370216799999945e+01
1.017591330199999966e+01 0.000000000000000000e+00 0.000000000000000000e+00 7.643917299999999915e-02 1.025225120300000015e+01 0.000000000000000000e+00 -2.335040000000000032e-02 9.905017500000000419e-02 1.060361330399999957e+01
1.022149514600000053e+01 0.000000000000000000e+00 0.000000000000000000e+00 7.678157300000000574e-02 1.029817499400000003e+01 0.000000000000000000e+00 -2.345499499999999932e-02 9.949385900000000393e-02 1.065111098100000042e+01
1.014303949299999985e+01 0.000000000000000000e+00 0.000000000000000000e+00 7.619223199999999863e-02 1.021913078000000041e+01 0.000000000000000000e+00 -2.327496500000000162e-02 9.873018899999999598e-02 1.056935778799999959e+01
1.035000997999999939e+01 0.000000000000000000e+00 0.000000000000000000e+00 7.774694799999999628e-02 1.042765392299999938e+01 0.000000000000000000e+00 -2.374989500000000003e-02 1.007447949999999981e-01 1.078502737400000022e+01
1.012005959300000058e+01 0.000000000000000000e+00 0.000000000000000000e+00 -5.181658199999999992e-02 1.014367900599999928e+01 0.000000000000000000e+00 -5.682062899999999750e-02 3.910577600000000181e-02 1.056071497399999970e+01
1.024497079500000041e+01 0.000000000000000000e+00 0.000000000000000000e+00 -5.245615099999999947e-02 1.026888174099999951e+01 0.000000000000000000e+00 -5.752196200000000287e-02 3.958845600000000103e-02 1.069106515500000043e+01
1.033310607099999956e+01 0.000000000000000000e+00 0.000000000000000000e+00 -5.290741999999999667e-02 1.035722271700000086e+01 0.000000000000000000e+00 -5.801681100000000146e-02 3.992902699999999888e-02 1.078303808399999930e+01
1.018829792000000012e+01 0.000000000000000000e+00 0.000000000000000000e+00 7.653220299999999310e-02 1.026472872799999969e+01 0.000000000000000000e+00 -2.337881799999999913e-02 9.917072500000000124e-02 1.061651845499999958e+01
1.019244112500000021e+01 0.000000000000000000e+00 0.000000000000000000e+00 7.656332600000000099e-02 1.026890301499999936e+01 0.000000000000000000e+00 -2.338832500000000147e-02 9.921105400000000685e-02 1.062083580200000021e+01
1.023568147399999972e+01 0.000000000000000000e+00 0.000000000000000000e+00 7.688813799999999476e-02 1.031246774499999930e+01 0.000000000000000000e+00 -2.348754800000000045e-02 9.963194599999999901e-02 1.066589356899999963e+01
1.028629418300000076e+01 0.000000000000000000e+00 0.000000000000000000e+00 -5.266773400000000077e-02 1.031030157300000027e+01 0.000000000000000000e+00 -5.775397799999999748e-02 3.974813700000000283e-02 1.073418787700000010e+01
1.009959021000000057e+01 0.000000000000000000e+00 0.000000000000000000e+00 -5.171177500000000149e-02 1.012316184900000060e+01 0.000000000000000000e+00 -5.670569999999999777e-02 3.902667900000000162e-02 1.053935429699999915e+01
1.005367424299999968e+01 0.000000000000000000e+00 0.000000000000000000e+00 -5.147667699999999846e-02 1.007713871700000041e+01 0.000000000000000000e+00 -5.644789800000000329e-02 3.884925100000000131e-02 1.049143902099999970e+01
1.014261448399999921e+01 0.000000000000000000e+00 0.000000000000000000e+00 7.618903900000000007e-02 1.021870258300000067e+01 0.000000000000000000e+00 -2.327399000000000134e-02 9.872605199999999470e-02 1.056891491600000066e+01
1.026109151700000055e+01 0.000000000000000000e+00 0.000000000000000000e+00 -5.253869199999999795e-02 1.028504008700000050e+01 0.000000000000000000e+00 -5.761247399999999685e-02 3.965074899999999902e-02 1.070788781699999959e+01
1.038127511100000078e+01 0.000000000000000000e+00 0.000000000000000000e+00 -5.315405399999999919e-02 1.040550417999999944e+01 0.000000000000000000e+00 -5.828726299999999888e-02 4.011516100000000334e-02 1.083330453700000007e+01
1.023758979299999972e+01 0.000000000000000000e+00 0.000000000000000000e+00 -5.241835899999999770e-02 1.026148351199999986e+01 0.000000000000000000e+00 -5.748052000000000022e-02 3.955993399999999799e-02 1.068336276299999987e+01
1.020252459099999953e+01 0.000000000000000000e+00 0.000000000000000000e+00 7.663907100000000305e-02 1.027906212499999938e+01 0.000000000000000000e+00 -2.341146399999999989e-02 9.930920399999999815e-02 1.063134308200000078e+01
1.020234586299999968e+01 0.000000000000000000e+00 0.000000000000000000e+00 -5.223790300000000220e-02 1.022615732500000085e+01 0.000000000000000000e+00 -5.728263799999999684e-02 3.942374500000000309e-02 1.064658421500000074e+01
1.028820582700000053e+01 0.000000000000000000e+00 0.000000000000000000e+00 -5.267752199999999746e-02 1.031221767999999983e+01 0.000000000000000000e+00 -5.776471200000000278e-02 3.975552400000000042e-02 1.073618275900000008e+01
1.033798880800000042e+01 0.000000000000000000e+00 0.000000000000000000e+00 -5.293242000000000086e-02 1.036211684999999960e+01 0.000000000000000000e+00 -5.804422599999999738e-02 3.994789499999999716e-02 1.078813342900000016e+01
1.012467758500000059e+01 0.000000000000000000e+00 0.000000000000000000e+00 -5.184022700000000261e-02 1.014830777499999925e+01 0.000000000000000000e+00 -5.684655699999999895e-02 3.912362099999999732e-02 1.056553404499999971e+01
1.013288303899999931e+01 0.000000000000000000e+00 0.000000000000000000e+00 -5.188224100000000255e-02 1.015653237999999980e+01 0.000000000000000000e+00 -5.689262800000000064e-02 3.915532800000000313e-02 1.057409678700000022e+01
1.035182945100000040e+01 0.000000000000000000e+00 0.000000000000000000e+00 7.776061500000000515e-02 1.042948704299999996e+01 0.000000000000000000e+00 -2.375406999999999866e-02 1.007625060000000017e-01 1.078692331799999948e+01
1.023828503700000070e+01 0.000000000000000000e+00 0.000000000000000000e+00 7.690769499999999814e-02 1.031509083999999987e+01 0.000000000000000000e+00 -2.349352199999999932e-02 9.965728899999999613e-02 1.066860656200000079e+01
1.033915543700000050e+01 0.000000000000000000e+00 0.000000000000000000e+00 7.766541100000000364e-02 1.041671795100000075e+01 0.000000000000000000e+00 -2.372498699999999947e-02 1.006391400000000019e-01 1.077371660700000078e+01
1.007848425699999950e+01 0.000000000000000000e+00 0.000000000000000000e+00 7.570730800000000094e-02 1.015409126199999967e+01 0.000000000000000000e+00 -2.312683199999999994e-02 9.810182200000000519e-02 1.050208925499999957e+01
1.018184665499999930e+01 0.000000000000000000e+00 0.000000000000000000e+00 -5.213294300000000103e-02 1.020561027399999965e+01 0.000000000000000000e+00 -5.716754200000000175e-02 3.934453300000000098e-02 1.062519241500000078e+01
1.028755892100000047e+01 0.000000000000000000e+00 0.000000000000000000e+00 7.727782900000000621e-02 1.036473436700000050e+01 0.000000000000000000e+00 -2.360659000000000021e-02 1.001369099999999956e-01 1.071995145800000060e+01
1.034908017200000074e+01 0.000000000000000000e+00 0.000000000000000000e+00 7.773996299999999526e-02 1.042671713999999916e+01 0.000000000000000000e+00 -2.374776099999999918e-02 1.007357450000000015e-01 1.078405848499999919e+01
1.024907651700000066e+01 0.000000000000000000e+00 0.000000000000000000e+00 7.698875800000000436e-02 1.032596327599999952e+01 0.000000000000000000e+00 -2.351828499999999988e-02 9.976233099999999576e-02 1.067985161500000046e+01
1.018907135299999922e+01 0.000000000000000000e+00 0.000000000000000000e+00 7.653801300000000196e-02 1.026550796299999924e+01 0.000000000000000000e+00 -2.338059300000000160e-02 9.917825299999999400e-02 1.061732439600000077e+01
1.030573542499999995e+01 0.000000000000000000e+00 0.000000000000000000e+00 -5.276727700000000132e-02 1.032978819000000037e+01 0.000000000000000000e+00 -5.786313399999999663e-02 3.982326199999999816e-02 1.075447564399999933e+01
1.022972395899999931e+01 0.000000000000000000e+00 0.000000000000000000e+00 -5.237808399999999837e-02 1.025359931899999921e+01 0.000000000000000000e+00 -5.743635600000000091e-02 3.952953900000000242e-02 1.067515442899999911e+01
1.036015745299999935e+01 0.000000000000000000e+00 0.000000000000000000e+00 7.782317299999999549e-02 1.043787752100000077e+01 0.000000000000000000e+00 -2.377318000000000139e-02 1.008435689999999940e-01 1.079560135200000026e+01
