-9.088188836199999514e+02
-9.122152135300000282e+02
-9.076089031400000522e+02
-9.001781328499999972e+02
-9.030866265700000213e+02
-8.973027529400000049e+02
-8.918492526500000395e+02
-8.884083324199999652e+02
-9.008740461099999948e+02
-8.969720675999999457e+02
-8.984180956699999570e+02
-8.899976394100000334e+02
-9.026440778500000306e+02
-8.939638229600000159e+02
-9.048365247299999510e+02
-9.109546612200000482e+02
-8.962839349700000184e+02
-8.995756379700000025e+02
-9.099012546500000553e+02
-9.065197878599999513e+02
-9.003717645599999742e+02
-9.157911293099999739e+02
-8.951784304400000565e+02
-9.024429866100000481e+02
-9.113378491800000347e+02
-9.131703618300000471e+02
-8.855373285199999600e+02
-9.009391936499999929e+02
-8.868705007999999452e+02
-9.088821265300000505e+02
-9.110272022299999435e+02
-9.028639822899999672e+02
-9.074298112699999592e+02
-9.082358504100000118e+02
-8.992353709300000446e+02
-8.964794471400000475e+02
-9.094691438700000390e+02
-9.123556034099999579e+02
-8.888687009799999714e+02
-8.936410062899999502e+02
-9.106693064600000298e+02
-8.904050013500000205e+02
-9.065071518299999980e+02
-9.020385239700000284e+02
-8.941263003999999910e+02
-8.822601223299999447e+02
-8.951090862900000502e+02
-8.935869382800000267e+02
-9.171705202699999973e+02
-8.999614111199999797e+02
-8.998831674599999815e+02
-8.972693861000000197e+02
-9.102851170200000297e+02
-8.939907426299999997e+02
-8.936055240900000172e+02
-8.921085091100000000e+02
-9.056235189999999875e+02
-9.122721013999999968e+02
-9.128647240300000476e+02
-9.116121113299999479e+02
-9.011832894399999532e+02
-9.098458581300000105e+02
-9.116287697100000287e+02
-9.105207012600000098e+02
-9.132438319799999817e+02
-9.152155233099999805e+02
-8.937235695800000030e+02
-9.112035104899999851e+02
-8.948563740900000312e+02
-8.987466467399999601e+02
-9.047355917899999440e+02
-8.882268528299999844e+02
-9.156202125900000510e+02
-9.115206524400000490e+02
-8.941927254199999879e+02
-8.957903882800000019e+02
-9.049030569100000321e+02
-9.125987526100000196e+02
-8.990291001800000004e+02
-8.966463939400000527e+02
-8.891669795100000329e+02
-9.008902491899999632e+02
-9.088976126000000022e+02
-8.994084174900000335e+02
-9.096657497899999498e+02
-8.895937593300000117e+02
-9.143814097800000127e+02
-9.083325181999999813e+02
-8.911128353300000526e+02
-9.171351072100000010e+02
-8.956553413699999737e+02
-9.101199990600000547e+02
-9.073009234200000037e+02
-8.890430358600000318e+02
-8.955970379499999581e+02
-9.044171398500000123e+02
-8.966629099799999949e+02
-9.092407806100000016e+02
-9.092723110900000165e+02
-8.977524003800000401e+02
