9.780699999999999505e+00 3.055410000000000181e+00 2.638450000000000184e+00 2.463999999999999871e-02 2.515249999999999986e+00 7.775579999999999714e+00 5.593999999999999667e-02 7.789100000000000357e+00 2.580020000000000202e+00 9.249000000000000277e-02 7.827469999999999928e+00 7.523920000000000385e+00 4.953289999999999971e+00 2.748889999999999834e+00 2.432760000000000034e+00 5.200120000000000076e+00 2.484729999999999883e+00 7.936309999999999754e+00 4.867689999999999628e+00 7.412149999999999572e+00 2.647790000000000088e+00 5.051140000000000185e+00 7.920020000000000060e+00 7.986849999999999561e+00 2.345629999999999882e+00 6.047400000000000553e-01 2.632730000000000015e+00 2.270329999999999959e+00 1.023497000000000057e+01 8.071880000000000166e+00 2.130030000000000090e+00 5.239080000000000403e+00 2.502979999999999983e+00 2.669560000000000155e+00 5.450280000000000236e+00 8.134890000000000398e+00 7.488380000000000258e+00 1.012677000000000049e+01 2.739689999999999959e+00 7.616469999999999629e+00 2.008699999999999930e-01 8.277279999999999305e+00 7.288949999999999818e+00 5.045499999999999652e+00 3.106630000000000003e+00 7.739969999999999573e+00 5.380300000000000082e+00 8.214909999999999712e+00 2.916650000000000187e+00 2.632130000000000081e+00 5.429429999999999978e+00 2.523070000000000146e+00 2.875669999999999948e+00 1.040250999999999948e+01 2.654069999999999929e+00 7.131310000000000038e+00 5.373809999999999754e+00 2.498320000000000096e+00 7.927349999999999675e+00 3.844999999999999807e-02 7.294559999999999711e+00 2.264380000000000059e+00 5.515480000000000160e+00 7.499010000000000176e+00 2.342950000000000088e+00 1.354899999999999993e-01 7.621010000000000062e+00 7.854879999999999640e+00 5.381960000000000299e+00 7.703210000000000335e+00 7.826780000000000292e+00 2.041900000000000104e-01 1.008700000000000013e-01 2.304900000000000004e-01 4.889639999999999986e+00 8.487000000000000099e-02 1.781600000000000128e-01 1.291700000000000070e-01 1.017346000000000039e+01 5.137459999999999916e+00 4.995289999999999786e+00 1.006461000000000006e+01 5.298700000000000188e+00 1.030761000000000038e+01 4.641759999999999664e+00 1.021256999999999948e+01 5.090099999999999625e+00 4.757690000000000197e+00 1.014786999999999928e+01 6.793000000000000427e-02 5.393460000000000143e+00 5.229969999999999786e+00 5.472019999999999662e+00 5.117329999999999934e+00 5.314280000000000115e+00 1.038001000000000040e+01 3.455919999999999881e+00 3.288969999999999949e+00 3.627180000000000071e+00 4.006350000000000300e+00 4.184960000000000235e+00 8.777699999999999392e+00 3.737699999999999800e+00 8.601810000000000400e+00 4.268469999999999764e+00 3.504560000000000120e+00 9.247400000000000730e+00 9.359989999999999810e+00 8.889670000000000627e+00 3.458569999999999922e+00 4.331649999999999778e+00 8.708780000000000854e+00 4.048750000000000071e+00 9.709899999999999309e+00 8.934770000000000323e+00 9.018019999999999925e+00 4.300419999999999909e+00 1.918730000000000047e+00 8.513659999999999783e+00 6.719899999999999984e+00 6.696679999999999744e+00 1.090109999999999912e+00 1.355839999999999934e+00 3.794929999999999914e+00 1.675669999999999993e+00 9.310029999999999362e+00 3.464620000000000033e+00 6.791050000000000253e+00 1.129210000000000047e+00 4.206179999999999808e+00 6.654119999999999813e+00 6.614989999999999704e+00 1.271749999999999936e+00 1.627979999999999983e+00 1.178840000000000110e+00 6.449290000000000411e+00 1.386300000000000088e+00 6.875569999999999737e+00 6.137850000000000250e+00 6.116500000000000270e+00 1.621529999999999916e+00 9.540869999999999962e+00 4.245210000000000150e+00 6.895129999999999981e+00 3.719549999999999912e+00 9.474000000000000199e-01 4.113249999999999851e+00 8.996290000000000120e+00 1.353839999999999932e+00 5.841719999999999580e+00 4.150489999999999569e+00 6.091330000000000133e+00 3.898649999999999949e+00 3.828250000000000153e+00 6.754380000000000273e+00 9.395060000000000855e+00 8.959279999999999688e+00 1.199140000000000095e+00 3.175640000000000018e+00 8.076190000000000424e+00 9.790789999999999438e+00 1.005469000000000079e+01 9.041050000000000253e+00 9.201840000000000686e+00 1.658609999999999918e+00 1.356719999999999926e+00 6.658280000000000420e+00 1.412369999999999903e+00 3.456679999999999975e+00 4.115380000000000038e+00 1.206409999999999982e+00 6.893119999999999692e+00 3.903890000000000082e+00 6.818249999999999922e+00 3.669210000000000083e+00 9.411239999999999384e+00 1.411340000000000039e+00 5.947799999999999976e+00 1.071379999999999999e+00 9.126590000000000202e+00 8.209210000000000562e+00 3.806020000000000181e+00 1.796969999999999956e+00 1.841990000000000016e+00 3.499499999999999833e+00 6.897380000000000067e+00 9.052170000000000272e+00 1.554899999999999949e+00 1.057690000000000019e+00 8.892429999999999168e+00 6.587539999999999729e+00 6.302830000000000155e+00 7.390900000000000247e-01 4.127399999999999958e-01 6.657770000000000188e+00 1.232019999999999893e+00 1.465580000000000105e+00 9.124689999999999301e+00 8.977349999999999497e+00 6.565620000000000012e+00 1.173589999999999911e+00 1.340109999999999912e+00 5.916050000000000253e+00 6.529359999999999609e+00 6.415569999999999773e+00 7.722799999999999665e-01 4.320859999999999701e+00 8.810489999999999711e+00 1.557120000000000060e+00 8.805690000000000239e+00 6.565839999999999677e+00 6.332019999999999982e+00 4.570400000000000240e+00 1.045970000000000066e+00 3.949419999999999931e+00 9.155820000000000292e+00 1.035670000000000091e+00 3.884469999999999867e+00 1.254320000000000102e+00 4.771889999999999965e+00 3.240470000000000184e+00 5.991719999999999935e+00 9.871900000000000119e-01 9.134249999999999758e+00 1.208350000000000035e+00 3.429339999999999833e+00 1.109299999999999953e+00 6.547489999999999810e+00 6.222949999999999982e+00 3.517300000000000093e+00 7.886300000000000532e-01 6.298029999999999795e+00 6.313579999999999970e+00 7.296219999999999928e+00 9.055149999999999366e+00 6.571469999999999700e+00 9.155620000000000758e+00 6.125650000000000261e+00 9.204390000000000072e+00 7.022789999999999644e+00 1.289330000000000087e+00 1.714409999999999989e+00 3.986359999999999904e+00 1.324130000000000029e+00 6.531150000000000233e+00 9.109849999999999781e+00 9.806099999999999817e-01 9.490230000000000388e+00 3.724159999999999915e+00 6.967999999999999750e-01 9.222220000000000084e+00 9.058590000000000586e+00 6.165239999999999831e+00 3.271209999999999951e+00 3.851620000000000044e+00 5.931400000000000006e+00 8.199210000000000775e+00 9.650410000000000821e+00 6.023740000000000094e+00 8.591210000000000235e+00 4.334670000000000023e+00 6.473930000000000184e+00 8.897919999999999163e+00 1.749349999999999961e+00 3.824269999999999836e+00 1.436539999999999928e+00 1.549970000000000070e+00 8.890449999999999520e+00 8.834889999999999688e+00 7.008300000000000196e+00 1.321709999999999940e+00 6.616119999999999557e+00 3.825909999999999922e+00 9.189780000000000726e+00 6.448739999999999917e+00 3.736940000000000150e+00
1.008186000000000071e+01 2.651569999999999983e+00 2.616629999999999789e+00 9.996159999999999712e+00 2.839830000000000076e+00 7.814040000000000319e+00 9.970720000000000027e+00 7.655350000000000321e+00 2.443610000000000060e+00 3.864999999999999686e-02 7.914039999999999964e+00 7.831089999999999662e+00 5.106359999999999566e+00 2.700800000000000090e+00 2.805660000000000043e+00 5.077280000000000015e+00 2.441660000000000164e+00 8.070009999999999906e+00 4.874939999999999607e+00 7.788960000000000328e+00 2.625129999999999963e+00 5.159049999999999692e+00 7.763080000000000425e+00 7.917250000000000121e+00 2.541049999999999809e+00 1.010979999999999990e+01 2.486819999999999808e+00 2.613669999999999938e+00 1.015146999999999977e+01 7.956859999999999822e+00 2.311690000000000023e+00 5.130860000000000198e+00 2.497739999999999849e+00 2.459429999999999783e+00 5.148990000000000400e+00 7.666360000000000063e+00 7.515179999999999971e+00 1.010060000000000002e+01 2.761880000000000113e+00 7.457300000000000040e+00 1.428800000000000070e-01 7.920539999999999914e+00 7.368610000000000326e+00 5.146899999999999586e+00 2.917310000000000070e+00 7.364469999999999850e+00 5.017680000000000362e+00 7.810019999999999740e+00 2.441790000000000127e+00 2.578469999999999818e+00 5.092959999999999710e+00 2.444150000000000045e+00 2.648280000000000189e+00 1.031611000000000011e+01 2.534549999999999859e+00 7.851119999999999877e+00 5.369679999999999787e+00 2.450029999999999930e+00 7.661400000000000432e+00 1.013580999999999932e+01 7.534229999999999983e+00 2.535690000000000222e+00 5.286669999999999980e+00 7.732920000000000016e+00 2.706319999999999837e+00 2.943899999999999850e-01 7.559169999999999945e+00 7.844990000000000130e+00 5.650459999999999816e+00 7.721440000000000303e+00 7.745919999999999916e+00 1.044481000000000037e+01 1.335999999999999965e-01 3.261000000000000010e-02 4.986460000000000115e+00 1.118799999999999933e-01 7.598000000000000587e-02 1.039570999999999934e+01 9.953829999999999956e+00 5.210350000000000037e+00 5.171890000000000320e+00 6.167000000000000259e-02 5.070260000000000211e+00 1.036391000000000062e+01 5.107569999999999943e+00 1.099900000000000044e-01 5.268309999999999604e+00 5.045609999999999928e+00 1.016159999999999997e+01 1.724100000000000077e-01 4.695540000000000269e+00 5.259599999999999831e+00 5.088530000000000442e+00 5.017459999999999809e+00 5.054299999999999571e+00 1.031320999999999977e+01 3.724089999999999900e+00 4.118179999999999730e+00 3.615060000000000162e+00 3.706830000000000069e+00 3.826979999999999826e+00 8.769130000000000535e+00 3.824409999999999865e+00 9.071630000000000749e+00 3.867430000000000145e+00 3.767300000000000093e+00 8.966229999999999478e+00 9.063959999999999795e+00 8.851440000000000197e+00 4.033140000000000391e+00 3.703510000000000080e+00 8.782230000000000203e+00 4.098919999999999675e+00 8.955650000000000333e+00 8.892350000000000421e+00 8.940490000000000492e+00 3.676820000000000199e+00 8.897729999999999251e+00 9.200689999999999813e+00 9.019629999999999370e+00 4.108290000000000219e+00 1.266890000000000072e+00 1.574470000000000036e+00 3.862190000000000012e+00 1.381010000000000071e+00 6.763449999999999740e+00 4.170530000000000292e+00 6.456459999999999866e+00 1.433009999999999895e+00 3.651569999999999983e+00 6.517839999999999634e+00 6.634839999999999627e+00 8.605290000000000106e+00 1.444530000000000092e+00 1.593350000000000044e+00 8.605639999999999290e+00 1.691880000000000051e+00 6.903240000000000265e+00 8.185050000000000381e+00 6.604020000000000223e+00 1.742629999999999901e+00 8.511639999999999873e+00 6.720119999999999649e+00 7.252349999999999852e+00 3.927080000000000126e+00 1.561569999999999903e+00 4.196900000000000297e+00 3.830869999999999997e+00 1.373769999999999936e+00 9.468930000000000291e+00 3.287310000000000176e+00 6.391420000000000101e+00 4.154510000000000147e+00 3.893660000000000121e+00 6.437839999999999563e+00 9.152400000000000091e+00 8.871819999999999595e+00 1.420330000000000092e+00 4.071860000000000035e+00 9.130679999999999907e+00 1.576929999999999943e+00 9.655139999999999390e+00 8.405300000000000438e+00 6.410350000000000215e+00 4.431370000000000253e+00 9.285669999999999646e+00 6.706649999999999778e+00 9.709580000000000766e+00 3.596449999999999925e+00 3.993819999999999926e+00 1.004739999999999966e+00 3.399610000000000021e+00 4.123940000000000161e+00 6.124539999999999651e+00 3.593949999999999978e+00 8.871579999999999799e+00 1.209319999999999951e+00 3.947929999999999939e+00 8.908549999999999969e+00 6.470889999999999809e+00 8.925330000000000652e+00 4.031679999999999708e+00 1.125129999999999963e+00 8.533440000000000580e+00 4.122200000000000308e+00 6.248099999999999987e+00 8.707929999999999282e+00 9.137249999999999872e+00 1.003959999999999964e+00 8.954700000000000770e+00 9.106740000000000279e+00 6.239580000000000126e+00 1.236429999999999918e+00 1.208979999999999944e+00 3.426899999999999835e+00 1.368039999999999923e+00 1.382589999999999986e+00 8.826090000000000657e+00 7.271499999999999631e-01 6.074650000000000105e+00 3.289709999999999912e+00 1.409599999999999964e+00 6.695439999999999614e+00 8.552640000000000242e+00 6.357579999999999565e+00 1.291789999999999994e+00 3.488170000000000215e+00 6.494539999999999758e+00 1.088140000000000107e+00 9.538090000000000401e+00 5.849770000000000358e+00 6.321380000000000443e+00 3.575969999999999871e+00 6.425519999999999676e+00 6.311379999999999768e+00 9.127789999999999182e+00 1.232830000000000092e+00 3.763389999999999791e+00 1.439599999999999991e+00 8.523300000000000320e-01 4.200499999999999901e+00 6.671540000000000248e+00 1.139950000000000019e+00 8.669240000000000279e+00 1.327769999999999895e+00 1.429689999999999905e+00 9.090579999999999217e+00 6.710749999999999993e+00 6.248619999999999841e+00 3.893310000000000048e+00 1.483139999999999903e+00 5.974280000000000257e+00 3.810179999999999900e+00 6.601679999999999993e+00 6.269650000000000389e+00 8.755599999999999383e+00 1.463789999999999925e+00 6.045950000000000379e+00 6.636510000000000353e+00 6.370409999999999684e+00 1.248439999999999994e+00 3.829169999999999963e+00 4.097330000000000361e+00 1.237160000000000037e+00 3.935179999999999900e+00 9.249499999999999389e+00 1.328869999999999996e+00 9.018370000000000886e+00 3.868139999999999912e+00 1.346580000000000110e+00 9.054270000000000707e+00 9.190590000000000259e+00 6.213280000000000136e+00 3.873610000000000220e+00 4.148049999999999571e+00 6.397140000000000271e+00 3.728769999999999918e+00 9.397209999999999397e+00 6.403059999999999974e+00 9.000059999999999505e+00 4.184510000000000396e+00 6.280310000000000059e+00 8.931210000000000093e+00 9.198050000000000281e+00 1.694280000000000008e+00 1.153410000000000046e+00 8.580999999999999739e-01 9.850999999999999757e-01 1.641459999999999919e+00 6.191029999999999589e+00 1.537789999999999990e+00 6.087209999999999788e+00 6.714799999999999658e-01 8.660600000000000520e-01 6.782230000000000203e+00 5.896740000000000315e+00
1.020368000000000031e+01 2.797019999999999840e+00 3.178269999999999929e+00 1.006189000000000000e+01 2.973899999999999988e+00 8.475749999999999673e+00 9.952780000000000626e+00 7.903769999999999740e+00 3.050769999999999982e+00 1.016357999999999961e+01 7.989930000000000199e+00 8.456039999999999779e+00 4.926650000000000418e+00 3.029990000000000183e+00 2.344170000000000087e+00 5.033540000000000347e+00 2.862220000000000208e+00 7.518550000000000288e+00 4.911839999999999762e+00 7.948739999999999917e+00 2.242410000000000014e+00 4.967039999999999900e+00 7.928869999999999862e+00 7.367340000000000444e+00 2.632390000000000008e+00 2.867500000000000049e-01 2.114529999999999799e+00 2.803080000000000016e+00 2.726600000000000135e-01 7.636989999999999945e+00 2.753779999999999895e+00 5.491080000000000183e+00 2.211910000000000043e+00 2.669220000000000148e+00 5.337080000000000268e+00 7.496679999999999566e+00 7.839389999999999858e+00 3.774199999999999777e-01 3.044919999999999849e+00 7.835619999999999585e+00 2.606899999999999773e-01 8.380069999999999908e+00 7.830149999999999721e+00 5.552100000000000257e+00 3.006549999999999834e+00 7.656530000000000058e+00 5.397170000000000023e+00 8.412990000000000634e+00 2.614040000000000141e+00 2.377359999999999918e+00 4.889549999999999841e+00 2.667089999999999961e+00 2.537549999999999972e+00 1.012730999999999959e+01 2.601669999999999927e+00 7.646910000000000096e+00 4.800049999999999706e+00 2.715629999999999988e+00 7.563139999999999752e+00 1.014311000000000007e+01 7.921549999999999869e+00 2.315620000000000012e+00 5.661599999999999966e+00 7.887970000000000148e+00 2.631520000000000081e+00 5.129700000000000371e-01 7.842439999999999856e+00 7.709329999999999572e+00 5.767479999999999940e+00 7.786279999999999646e+00 7.629629999999999690e+00 3.738500000000000156e-01 1.017267999999999972e+01 1.006152999999999942e+01 5.830829999999999735e+00 1.004820999999999920e+01 1.027183999999999919e+01 4.917400000000000104e-01 1.006483000000000061e+01 5.117700000000000138e+00 5.681750000000000078e+00 1.018477999999999994e+01 5.101740000000000386e+00 5.159200000000000452e-01 4.769470000000000098e+00 1.027543999999999969e+01 4.628940000000000055e+00 4.876350000000000406e+00 1.024813999999999936e+01 1.039640999999999948e+01 4.990219999999999878e+00 5.100819999999999688e+00 4.917089999999999961e+00 4.982969999999999899e+00 5.027020000000000266e+00 1.024180999999999919e+01 3.520469999999999988e+00 3.832920000000000105e+00 3.624089999999999812e+00 3.622149999999999981e+00 4.053420000000000023e+00 8.899240000000000705e+00 3.493640000000000079e+00 9.130860000000000198e+00 3.556750000000000078e+00 3.302270000000000039e+00 9.225450000000000372e+00 9.041259999999999408e+00 8.749599999999999156e+00 3.962489999999999846e+00 4.193939999999999557e+00 8.738950000000000884e+00 4.120449999999999946e+00 9.639670000000000627e+00 8.575160000000000338e+00 9.111689999999999401e+00 4.287410000000000387e+00 8.621489999999999654e+00 9.125199999999999534e+00 9.550280000000000769e+00 4.007450000000000401e+00 1.430779999999999941e+00 9.939700000000000202e-01 4.054689999999999905e+00 1.501069999999999904e+00 6.172869999999999635e+00 4.135650000000000048e+00 6.483340000000000103e+00 9.032299999999999773e-01 3.842000000000000082e+00 6.394770000000000287e+00 6.081479999999999997e+00 9.172850000000000392e+00 1.332060000000000022e+00 1.822889999999999899e+00 9.320840000000000458e+00 1.227980000000000071e+00 7.021950000000000358e+00 9.307980000000000587e+00 6.625140000000000029e+00 1.577599999999999891e+00 9.207390000000000185e+00 6.538669999999999760e+00 7.033830000000000027e+00 4.013840000000000074e+00 1.363499999999999934e+00 3.449489999999999945e+00 4.102009999999999934e+00 1.468879999999999963e+00 9.093400000000000816e+00 3.937580000000000080e+00 6.479560000000000208e+00 3.530609999999999804e+00 4.211809999999999832e+00 6.424699999999999633e+00 8.825100000000000833e+00 9.512069999999999581e+00 1.260019999999999918e+00 4.578299999999999592e+00 9.284979999999999123e+00 1.563839999999999897e+00 9.818749999999999645e+00 9.107039999999999580e+00 6.475419999999999732e+00 4.361019999999999897e+00 9.210869999999999891e+00 6.641519999999999868e+00 9.747709999999999653e+00 3.567019999999999857e+00 3.920920000000000183e+00 9.962600000000000344e-01 3.517059999999999853e+00 4.007539999999999658e+00 6.189000000000000057e+00 3.704029999999999934e+00 9.006520000000000081e+00 9.475799999999999779e-01 3.582149999999999945e+00 9.283350000000000435e+00 6.323140000000000427e+00 8.733909999999999840e+00 4.214819999999999567e+00 1.709999999999999964e+00 8.532579999999999387e+00 3.838680000000000092e+00 7.002189999999999692e+00 8.485630000000000450e+00 9.239610000000000767e+00 1.512669999999999959e+00 8.703219999999999956e+00 9.020849999999999369e+00 7.026889999999999858e+00 1.586510000000000087e+00 1.710839999999999916e+00 2.915830000000000144e+00 1.503679999999999906e+00 1.636200000000000099e+00 8.495760000000000645e+00 1.615099999999999980e+00 6.930220000000000269e+00 3.082359999999999989e+00 1.514639999999999986e+00 6.783220000000000027e+00 8.455560000000000187e+00 6.720519999999999605e+00 1.639270000000000005e+00 7.312590000000000146e+00 6.780890000000000306e+00 1.109960000000000058e+00 1.005325999999999986e+01 6.667749999999999844e+00 7.006409999999999805e+00 7.317980000000000373e+00 6.750939999999999941e+00 6.163569999999999993e+00 1.004321000000000019e+01 9.484200000000000408e-01 4.408129999999999882e+00 2.284640000000000004e+00 9.867799999999999905e-01 4.262719999999999843e+00 7.474380000000000024e+00 6.317599999999999882e-01 9.410259999999999181e+00 2.004779999999999784e+00 7.999500000000000499e-01 9.564019999999999300e+00 7.624799999999999578e+00 6.139079999999999870e+00 3.448850000000000193e+00 6.911199999999999566e-01 6.013600000000000279e+00 3.514990000000000059e+00 5.770190000000000374e+00 6.623599999999999710e+00 7.069480000000000430e+00 2.075349999999999806e+00 5.934059999999999668e+00 8.777919999999999945e+00 5.683259999999999756e+00 9.415700000000000180e-01 3.605020000000000113e+00 4.779880000000000351e+00 8.808399999999999563e-01 3.516950000000000021e+00 1.045391000000000048e+01 6.774000000000000021e-01 8.733180000000000831e+00 4.680489999999999817e+00 9.777200000000000335e-01 8.665979999999999350e+00 1.024470999999999954e+01 5.907469999999999999e+00 4.668619999999999770e+00 3.148089999999999833e+00 5.938749999999999751e+00 4.354770000000000252e+00 8.549189999999999401e+00 5.910849999999999937e+00 9.697860000000000369e+00 2.994159999999999933e+00 5.918040000000000411e+00 9.314640000000000697e+00 8.530139999999999390e+00 1.681000000000000050e+00 7.540599999999999525e-01 3.378999999999999782e-01 1.715309999999999890e+00 9.123799999999999688e-01 5.645649999999999835e+00 1.625820000000000043e+00 6.121159999999999712e+00 6.229099999999999637e-01 1.367329999999999934e+00 6.231950000000000323e+00 5.836070000000000313e+00
4.451999999999999708e-02 2.644400000000000084e+00 2.636340000000000128e+00 1.006731000000000087e+01 2.660149999999999793e+00 7.806989999999999874e+00 -5.324999999999999872e-02 7.853299999999999947e+00 2.842330000000000023e+00 9.646409999999999485e+00 7.583490000000000286e+00 7.851259999999999906e+00 5.066340000000000288e+00 2.617020000000000124e+00 2.729319999999999968e+00 5.038199999999999790e+00 2.925870000000000193e+00 7.943159999999999776e+00 4.957069999999999865e+00 7.816119999999999735e+00 2.815010000000000012e+00 4.975069999999999659e+00 7.728580000000000005e+00 7.984790000000000276e+00 2.618660000000000210e+00 1.857199999999999962e-01 2.586850000000000094e+00 2.559200000000000141e+00 1.439100000000000101e-01 7.900339999999999918e+00 2.578930000000000167e+00 5.215790000000000148e+00 2.497640000000000082e+00 2.302740000000000009e+00 5.182809999999999917e+00 7.830049999999999955e+00 7.625779999999999781e+00 1.016812000000000005e+01 2.557620000000000005e+00 7.586219999999999963e+00 1.856999999999999970e-02 8.134069999999999467e+00 7.856300000000000061e+00 5.080119999999999969e+00 2.390849999999999920e+00 7.621410000000000018e+00 4.916380000000000194e+00 7.685190000000000410e+00 2.534829999999999917e+00 2.784390000000000143e+00 5.181149999999999700e+00 2.620060000000000056e+00 2.829759999999999831e+00 7.177999999999999658e-02 2.325559999999999850e+00 7.623300000000000409e+00 5.171380000000000088e+00 2.568799999999999972e+00 8.128180000000000405e+00 1.480200000000000127e-01 7.637940000000000396e+00 2.358470000000000066e+00 5.010100000000000442e+00 7.592489999999999739e+00 2.664979999999999905e+00 1.041362999999999950e+01 7.546549999999999869e+00 7.452630000000000088e+00 5.092089999999999783e+00 7.585980000000000167e+00 7.748079999999999856e+00 1.044203000000000081e+01 -5.723000000000000309e-02 1.014161999999999964e+01 5.582390000000000185e+00 3.916000000000000036e-02 1.217499999999999971e-01 1.040212999999999965e+01 9.942619999999999791e+00 5.005230000000000068e+00 5.161450000000000315e+00 8.412000000000000033e-02 5.296929999999999694e+00 1.045293000000000028e+01 4.848139999999999894e+00 1.020062000000000069e+01 5.419570000000000221e+00 4.979490000000000194e+00 2.514799999999999813e-01 6.672000000000000153e-02 4.973019999999999996e+00 5.123750000000000249e+00 5.210729999999999862e+00 5.104160000000000252e+00 5.423090000000000188e+00 1.042983000000000082e+01 3.836640000000000050e+00 4.022520000000000095e+00 3.687409999999999854e+00 3.811630000000000074e+00 4.275019999999999598e+00 9.115980000000000416e+00 3.459109999999999907e+00 9.072150000000000603e+00 3.776499999999999968e+00 3.886289999999999800e+00 9.304019999999999513e+00 9.054579999999999629e+00 8.784940000000000637e+00 3.729649999999999910e+00 3.853569999999999940e+00 9.056860000000000355e+00 3.800199999999999800e+00 9.161350000000000549e+00 8.621320000000000761e+00 8.867670000000000385e+00 3.916539999999999910e+00 8.849449999999999150e+00 8.901339999999999364e+00 9.164989999999999526e+00 3.802719999999999878e+00 1.489370000000000083e+00 1.321150000000000047e+00 4.173070000000000057e+00 1.590510000000000090e+00 6.481150000000000411e+00 4.088899999999999757e+00 6.431259999999999977e+00 1.641159999999999952e+00 3.818150000000000155e+00 6.447309999999999874e+00 6.980599999999999916e+00 8.685090000000000643e+00 1.352219999999999978e+00 1.224269999999999969e+00 8.847770000000000579e+00 1.029800000000000049e+00 6.804979999999999585e+00 9.410059999999999647e+00 6.493350000000000399e+00 1.325649999999999995e+00 8.735709999999999198e+00 6.153500000000000192e+00 6.303020000000000067e+00 4.113710000000000200e+00 1.231630000000000003e+00 3.907739999999999991e+00 3.757429999999999826e+00 1.603890000000000038e+00 9.140240000000000364e+00 3.774080000000000101e+00 6.576800000000000423e+00 4.160110000000000419e+00 4.002080000000000304e+00 6.972559999999999647e+00 9.655950000000000699e+00 9.190500000000000114e+00 1.253300000000000081e+00 3.953419999999999934e+00 8.657790000000000319e+00 1.235260000000000025e+00 9.363440000000000651e+00 8.979079999999999728e+00 6.353650000000000020e+00 3.802119999999999944e+00 8.556549999999999656e+00 6.391469999999999985e+00 9.088720000000000354e+00 3.981580000000000119e+00 3.996659999999999879e+00 1.165489999999999915e+00 3.733070000000000110e+00 4.052660000000000373e+00 6.509640000000000093e+00 3.852970000000000006e+00 9.231099999999999639e+00 1.213030000000000053e+00 3.348180000000000156e+00 9.160859999999999559e+00 6.318959999999999688e+00 8.959329999999999572e+00 3.946229999999999905e+00 1.032080000000000108e+00 8.835010000000000474e+00 3.788889999999999869e+00 6.249310000000000365e+00 9.032790000000000319e+00 9.237800000000000011e+00 1.234750000000000014e+00 8.241640000000000299e+00 8.681599999999999540e+00 6.651180000000000092e+00 1.646930000000000005e+00 1.751230000000000064e+00 3.365790000000000060e+00 8.778599999999999737e-01 1.194730000000000070e+00 8.561840000000000117e+00 1.266210000000000058e+00 6.584360000000000213e+00 3.713630000000000209e+00 1.077569999999999917e+00 6.585810000000000386e+00 9.005259999999999820e+00 6.732920000000000016e+00 7.802299999999999791e-01 4.311429999999999652e+00 6.296610000000000262e+00 1.460749999999999993e+00 9.105620000000000047e+00 6.475480000000000125e+00 6.135550000000000281e+00 3.507880000000000109e+00 6.692280000000000229e+00 6.098399999999999821e+00 8.356900000000000439e-01 1.417100000000000026e+00 3.946860000000000035e+00 1.314410000000000078e+00 1.321360000000000090e+00 3.650069999999999926e+00 6.714760000000000062e+00 1.262320000000000109e+00 8.975569999999999382e+00 1.672549999999999981e+00 9.450899999999999856e-01 8.709179999999999922e+00 6.869250000000000078e+00 6.469859999999999722e+00 3.697929999999999939e+00 1.638710000000000111e+00 6.657829999999999693e+00 3.127629999999999910e+00 6.875910000000000188e+00 6.459270000000000067e+00 8.843550000000000466e+00 1.586310000000000109e+00 5.693060000000000009e+00 9.486840000000000828e+00 7.132769999999999833e+00 1.364570000000000061e+00 4.083090000000000330e+00 4.103410000000000224e+00 1.293129999999999891e+00 3.892440000000000122e+00 9.252470000000000638e+00 1.101029999999999953e+00 9.080700000000000216e+00 4.266289999999999694e+00 1.304070000000000062e+00 9.154139999999999944e+00 9.454620000000000246e+00 6.046149999999999913e+00 3.541230000000000100e+00 4.494369999999999976e+00 6.446390000000000065e+00 4.025420000000000442e+00 9.333389999999999631e+00 5.883110000000000284e+00 8.611499999999999488e+00 4.462539999999999729e+00 6.344310000000000116e+00 9.148189999999999600e+00 9.614440000000000097e+00 1.112510000000000110e+00 1.411680000000000046e+00 6.832500000000000240e-01 1.435810000000000031e+00 1.170639999999999903e+00 6.010299999999999976e+00 1.734290000000000109e+00 6.490249999999999631e+00 1.100459999999999994e+00 1.173470000000000013e+00 6.111200000000000188e+00 6.225179999999999936e+00