-8.928281696000000238e+02
-9.180152250700000423e+02
-9.186314420899999504e+02
-9.147484972099999823e+02
-9.011989233699999886e+02
-9.177100077799999553e+02
-9.236004174099999773e+02
-8.787152272099999664e+02
-8.969196977399999469e+02
-9.135704656699999759e+02
-8.934012336199999709e+02
-8.973736970999999585e+02
-8.802161884299999883e+02
-8.857813650000000507e+02
-8.989690612099999498e+02
-9.077352673699999741e+02
-8.835657061900000144e+02
-8.960805552699999907e+02
-9.189406452700000045e+02
-8.850844669699999940e+02
-9.018914946300000111e+02
-9.019621809899999789e+02
-9.249258815499999855e+02
-8.962523858299999802e+02
-8.858999392700000044e+02
-8.969653946399999995e+02
-8.935658032000000048e+02
-8.968427967699999499e+02
-9.048355196600000454e+02
-8.912297623900000190e+02
-8.986478259399999615e+02
-8.836389550899999676e+02
-8.978497603099999651e+02
-9.013314701100000548e+02
-9.186868823300000031e+02
-8.868098801899999444e+02
-8.988209176899999875e+02
-9.171578939400000081e+02
-9.173011502599999858e+02
-8.986677703699999711e+02
-9.109946638100000200e+02
-8.840559971699999551e+02
-8.984946866499999487e+02
-8.981544129500000508e+02
-9.102654373100000385e+02
-9.164005202199999758e+02
-8.736838948800000253e+02
-9.204381608200000073e+02
-8.979003721100000348e+02
-8.942963551200000438e+02
-8.863914093399999956e+02
-8.955338445700000420e+02
-8.886651280099999894e+02
-8.917374506099999962e+02
-9.202603654399999868e+02
-9.031725742200000013e+02
-9.179513381499999696e+02
-8.884578035399999862e+02
-8.921637656299999435e+02
-9.129391913299999715e+02
-9.153312151999999742e+02
-8.880229684399999996e+02
-8.988377326199999970e+02
-9.049506313099999488e+02
-9.183180709700000079e+02
-9.144106509299999743e+02
-8.829636734800000113e+02
-8.906987537700000530e+02
-8.999166592899999841e+02
-8.947120010999999522e+02
-8.928811107499999480e+02
-9.214609738899999911e+02
-9.151800167599999440e+02
-8.977040374099999553e+02
-9.138385443500000065e+02
-8.985963592699999936e+02
-8.966751218000000563e+02
-9.156375251599999956e+02
-9.208954254400000536e+02
-9.060786195599999928e+02
-8.785446075099999916e+02
-9.150287805000000390e+02
-8.923772153899999466e+02
-8.885022337899999911e+02
-9.163901924399999643e+02
-8.918728535000000193e+02
-9.178553917399999591e+02
-8.881416865899999493e+02
-8.892690982799999802e+02
-9.181622921800000086e+02
-8.985873648499999717e+02
-9.139800331500000539e+02
-9.182252831800000195e+02
-9.122580229500000542e+02
-8.767756789999999683e+02
-9.143504279500000393e+02
-9.135915225700000519e+02
-8.922764286999999968e+02
-8.931157398000000285e+02
-8.845265722000000324e+02
