2.568490000000000162e+00 3.421799999999999842e-01 2.569300000000000139e+00 2.804069999999999840e+00 1.033108999999999966e+01 7.791549999999999976e+00 2.858870000000000022e+00 4.788920000000000066e+00 2.648400000000000087e+00 2.517329999999999846e+00 5.451240000000000308e+00 8.001210000000000377e+00 2.137400000000000133e-01 2.312600000000000211e+00 2.420230000000000103e+00 1.344299999999999939e-01 2.840339999999999865e+00 8.090289999999999537e+00 4.344700000000000228e-01 7.656780000000000364e+00 2.746859999999999857e+00 8.822000000000000675e-02 8.100210000000000576e+00 8.081599999999999895e+00 7.223690000000000389e+00 2.672649999999999970e+00 5.443719999999999892e+00 7.833630000000000315e+00 3.013830000000000009e+00 1.070583000000000062e+01 7.868999999999999773e+00 7.647649999999999615e+00 5.115310000000000024e+00 8.029239999999999711e+00 7.534930000000000128e+00 3.075999999999999915e-02 4.916179999999999772e+00 5.058440000000000047e+00 5.253029999999999866e+00 5.337209999999999788e+00 5.510200000000000209e+00 1.036952999999999925e+01 5.149960000000000093e+00 9.866540000000000532e+00 4.759809999999999874e+00 5.638849999999999696e+00 2.145000000000000032e-02 1.465999999999999942e-02 5.233880000000000088e+00 2.124519999999999964e+00 2.681700000000000195e+00 4.856309999999999683e+00 2.283850000000000158e+00 8.437200000000000699e+00 5.205940000000000012e+00 7.506689999999999863e+00 2.359170000000000211e+00 5.523089999999999833e+00 8.100809999999999178e+00 7.958540000000000170e+00 7.397369999999999557e+00 5.031909999999999883e+00 2.585249999999999826e+00 7.978539999999999743e+00 5.270400000000000418e+00 7.669800000000000395e+00 7.994100000000000428e+00 1.352500000000000091e-01 2.054730000000000167e+00 8.017189999999999372e+00 1.335800000000000043e-01 7.693080000000000140e+00 1.024544999999999995e+01 3.809600000000000208e-01 5.210049999999999848e+00 3.510599999999999832e-01 1.035649000000000086e+01 4.769999999999999934e-03 1.025789999999999935e+01 5.174439999999999706e+00 5.157160000000000188e+00 5.172799999999999621e-01 5.140340000000000131e+00 2.692300000000000249e-01 2.834960000000000147e+00 2.177270000000000039e+00 5.477240000000000109e+00 2.715279999999999916e+00 2.700909999999999922e+00 1.032943000000000033e+01 2.691089999999999982e+00 7.654259999999999842e+00 5.117280000000000051e+00 2.493059999999999832e+00 7.748009999999999842e+00 1.041793000000000013e+01 1.345529999999999893e+00 4.056140000000000079e+00 9.383760000000000545e+00 9.021020000000000039e+00 6.363319999999999865e+00 9.076829999999999288e+00 6.029799999999999827e+00 5.588580000000000325e+00 3.643320000000000114e+00 8.953820000000000334e+00 8.950440000000000396e+00 6.979930000000000412e+00 3.959189999999999987e+00 1.181370000000000031e+00 3.949939999999999785e+00 3.982270000000000199e+00 9.297900000000000054e-01 9.447459999999999525e+00 3.699469999999999814e+00 6.356139999999999901e+00 6.073820000000000441e+00 3.864399999999999835e+00 6.372589999999999755e+00 9.000939999999999941e+00 3.785969999999999835e+00 4.162980000000000125e+00 7.325269999999999726e+00 6.257019999999999804e+00 3.713260000000000005e+00 9.515500000000000069e-01 3.935329999999999995e+00 6.462589999999999613e+00 7.478900000000000547e-01 4.004269999999999996e+00 8.848829999999999529e+00 6.632200000000000095e+00 9.588210000000000122e+00 1.175620000000000109e+00 8.517250000000000654e+00 6.693839999999999790e+00 3.930500000000000105e-01 3.493500000000000050e+00 8.769890000000000185e+00 6.582019999999999982e+00 3.512830000000000119e+00 3.656429999999999847e+00 6.096129999999999605e+00 3.663689999999999891e+00 8.883979999999999322e+00 3.630560000000000009e+00 6.562560000000000393e+00 8.920939999999999870e+00 3.750820000000000043e+00 9.029939999999999856e+00 9.615309999999999135e+00 8.971579999999999444e+00 4.658900000000000041e+00 9.161910000000000664e+00 8.872249999999999304e+00 9.401899999999999480e+00 3.969580000000000108e+00 9.127300000000000413e-01 1.391860000000000097e+00 4.020380000000000287e+00 9.514899999999999469e-01 6.716960000000000264e+00 4.029460000000000264e+00 8.818690000000000140e+00 9.602370000000000516e+00 1.555730000000000057e+00 7.215230000000000032e+00 6.992650000000000254e+00 1.757239999999999913e+00 1.802810000000000024e+00 3.841340000000000199e+00 1.781230000000000091e+00 1.580000000000000071e+00 9.012900000000000134e+00 9.762899999999999912e-01 6.667679999999999829e+00 4.523760000000000225e+00 1.133739999999999970e+00 6.630560000000000009e+00 9.562400000000000233e+00 7.160619999999999763e+00 9.420180000000000220e+00 7.404100000000000126e-01 5.918660000000000032e+00 3.465409999999999879e+00 6.539349999999999774e+00 6.747939999999999827e+00 6.476869999999999905e+00 1.198220000000000063e+00 6.559490000000000265e+00 9.163779999999999148e+00 6.435130000000000017e+00 6.372709999999999653e+00 1.285889999999999977e+00 1.078799999999999981e+00 6.663050000000000139e+00 2.061150000000000038e+00 8.905229999999999535e+00 6.471840000000000259e+00 6.683309999999999640e+00 6.371509999999999785e+00 5.879859999999999864e+00 7.533500000000000085e+00 9.915369999999999351e+00 6.901659999999999684e+00 5.199340000000000295e+00 9.476139999999999119e+00 6.628910000000000302e+00 3.209859999999999935e+00 3.547719999999999985e+00 9.803639999999999688e+00 9.370689999999999742e+00 1.731160000000000032e+00 9.273930000000000007e+00 1.555010000000000003e+00 8.662999999999999590e-01 8.446550000000000225e+00 8.536200000000000454e-01 5.945560000000000400e+00 3.581339999999999968e+00 3.469090000000000007e+00 4.184120000000000061e+00 9.497379999999999711e+00 6.878639999999999866e+00 1.333879999999999955e+00 8.704349999999999810e+00 4.485719999999999708e+00 7.837199999999999722e-01 9.184490000000000265e+00 9.284599999999999520e-01 3.496840000000000170e+00 6.311919999999999753e+00 8.396789999999999310e+00 4.041909999999999670e+00 6.761420000000000208e+00 9.697380000000000777e+00 9.067180000000000462e+00 1.394579999999999931e+00 1.221640000000000059e+00 1.181680000000000064e+00 7.948100000000000165e-01 2.101690000000000058e+00 6.201229999999999798e+00 1.714369999999999949e+00 6.467559999999999754e+00 1.667059999999999986e+00 9.120020000000000238e+00 6.359670000000000378e+00 6.045480000000000409e+00 9.326629999999999754e+00 3.790599999999999969e+00 3.993479999999999919e+00 1.142670000000000075e+00 4.763189999999999813e+00 6.746950000000000003e+00 1.503910000000000080e+00 9.410679999999999268e+00 4.129959999999999631e+00 1.405610000000000026e+00 9.314930000000000376e+00 9.441599999999999326e+00 1.557620000000000005e+00 3.559229999999999894e+00 1.015079999999999982e+00 1.255179999999999962e+00 4.030170000000000030e+00 3.593179999999999819e+00 1.766890000000000072e+00 8.728229999999999933e+00 1.138900000000000023e+00 1.118130000000000068e+00 1.000599000000000061e+01 6.978979999999999961e+00 4.051160000000000316e+00 3.486349999999999838e+00 1.641059999999999963e+00 4.373289999999999900e+00 3.620530000000000026e+00 9.997040000000000148e+00 4.743680000000000341e+00 8.955339999999999634e+00 1.415059999999999985e+00 3.952630000000000088e+00 8.676809999999999690e+00 3.785159999999999858e+00
2.701020000000000199e+00 5.405999999999999694e-02 2.597290000000000099e+00 2.741400000000000059e+00 4.565999999999999920e-02 7.842780000000000307e+00 2.618209999999999926e+00 5.098930000000000184e+00 2.633169999999999789e+00 2.679180000000000117e+00 5.099149999999999849e+00 7.841109999999999580e+00 1.001313999999999993e+01 2.530860000000000110e+00 2.228889999999999816e+00 1.000142999999999915e+01 2.596070000000000100e+00 7.486589999999999634e+00 3.984999999999999654e-02 7.677120000000000388e+00 2.269589999999999996e+00 1.000211000000000006e+01 7.615890000000000271e+00 7.522840000000000416e+00 7.716599999999999682e+00 2.503690000000000193e+00 4.866080000000000183e+00 7.679649999999999643e+00 2.417159999999999975e+00 1.008210000000000051e+01 7.665099999999999802e+00 7.496640000000000192e+00 4.916190000000000282e+00 7.697070000000000078e+00 7.453689999999999927e+00 1.011270000000000024e+01 4.991959999999999731e+00 4.967830000000000190e+00 5.222929999999999851e+00 4.968289999999999651e+00 4.948489999999999611e+00 1.046231000000000044e+01 5.007740000000000080e+00 1.008244999999999969e+01 5.214409999999999989e+00 5.028719999999999857e+00 1.002790000000000070e+01 1.045101000000000013e+01 5.008449999999999847e+00 2.491350000000000176e+00 2.250239999999999796e+00 5.020220000000000127e+00 2.490149999999999864e+00 7.455619999999999692e+00 5.003400000000000070e+00 7.442870000000000097e+00 2.229359999999999786e+00 5.009330000000000283e+00 7.504410000000000025e+00 7.451710000000000278e+00 7.763390000000000235e+00 4.966520000000000046e+00 2.611330000000000151e+00 7.663999999999999702e+00 4.989169999999999661e+00 7.816880000000000273e+00 7.734569999999999723e+00 1.005105000000000004e+01 2.713379999999999903e+00 7.656749999999999723e+00 1.000704999999999956e+01 7.781189999999999607e+00 3.014000000000000012e-02 2.406000000000000152e-02 5.244419999999999860e+00 1.001199000000000083e+01 -1.674000000000000141e-02 1.044660000000000011e+01 4.696999999999999786e-02 5.140229999999999855e+00 5.209240000000000315e+00 -4.769999999999999934e-03 5.044999999999999929e+00 5.819999999999999653e-03 2.706840000000000135e+00 2.532090000000000174e+00 4.904569999999999652e+00 2.716429999999999900e+00 2.528140000000000054e+00 1.009350000000000058e+01 2.717680000000000096e+00 7.682479999999999976e+00 4.905289999999999928e+00 2.714059999999999917e+00 7.629599999999999937e+00 1.007019999999999982e+01 8.588850000000000762e+00 3.746690000000000076e+00 1.051800000000000068e+00 8.660280000000000200e+00 3.763020000000000032e+00 6.257579999999999920e+00 8.555749999999999744e+00 8.830880000000000507e+00 1.137320000000000109e+00 8.565030000000000143e+00 8.829810000000000159e+00 6.330770000000000231e+00 4.115649999999999586e+00 1.276080000000000103e+00 3.817709999999999937e+00 4.072070000000000078e+00 1.272890000000000077e+00 9.026370000000000005e+00 4.056099999999999817e+00 6.299640000000000128e+00 3.822330000000000005e+00 4.037729999999999819e+00 6.297909999999999897e+00 9.029049999999999798e+00 4.058799999999999741e+00 3.839529999999999887e+00 3.718290000000000095e+00 4.092459999999999987e+00 3.786459999999999937e+00 8.867100000000000648e+00 4.097120000000000317e+00 8.898669999999999192e+00 3.678970000000000073e+00 4.090609999999999857e+00 8.855959999999999610e+00 8.938480000000000203e+00 8.657360000000000610e+00 1.214050000000000074e+00 1.205440000000000067e+00 8.631510000000000460e+00 1.248040000000000038e+00 6.429459999999999731e+00 8.651419999999999888e+00 6.304389999999999716e+00 1.140260000000000051e+00 8.648820000000000618e+00 6.275470000000000326e+00 6.422369999999999912e+00 9.091110000000000468e+00 3.763279999999999959e+00 3.771129999999999871e+00 9.074049999999999727e+00 3.722230000000000150e+00 9.048830000000000595e+00 9.095510000000000872e+00 8.870100000000000762e+00 3.856139999999999901e+00 9.043689999999999785e+00 8.806839999999999336e+00 9.070410000000000750e+00 3.634419999999999984e+00 1.233209999999999917e+00 1.085439999999999960e+00 3.634980000000000100e+00 1.190250000000000030e+00 6.275920000000000165e+00 3.576369999999999827e+00 6.290259999999999962e+00 1.056259999999999977e+00 3.584140000000000104e+00 6.273030000000000328e+00 6.297719999999999985e+00 1.771919999999999940e+00 1.912139999999999951e+00 3.055130000000000123e+00 1.747919999999999918e+00 1.884789999999999965e+00 8.315920000000000201e+00 1.767160000000000064e+00 7.020310000000000272e+00 3.072389999999999954e+00 1.722180000000000044e+00 6.970010000000000261e+00 8.271620000000000417e+00 5.984729999999999883e+00 5.652099999999999902e-01 1.793719999999999981e+00 5.920239999999999725e+00 5.371000000000000218e-01 6.998509999999999565e+00 5.968079999999999607e+00 5.600130000000000052e+00 1.813260000000000094e+00 5.904359999999999609e+00 5.611919999999999575e+00 7.013429999999999609e+00 6.770150000000000112e+00 6.573200000000000154e-01 4.430410000000000181e+00 6.738190000000000346e+00 5.193999999999999728e-01 9.584210000000000562e+00 6.751890000000000391e+00 5.575940000000000119e+00 4.404259999999999842e+00 6.715099999999999625e+00 5.594759999999999955e+00 9.628239999999999910e+00 5.966160000000000352e+00 3.145080000000000098e+00 4.640500000000000180e-01 5.977560000000000429e+00 3.170700000000000074e+00 5.694359999999999644e+00 5.942400000000000126e+00 8.163759999999999906e+00 4.730099999999999860e-01 9.123659999999999215e+00 1.277779999999999916e+00 3.719980000000000064e+00 9.095169999999999533e+00 1.194460000000000077e+00 8.890760000000000218e+00 9.183970000000000411e+00 6.347769999999999690e+00 3.714500000000000135e+00 9.073180000000000689e+00 6.212579999999999991e+00 8.930389999999999162e+00 6.734740000000000393e+00 3.154040000000000177e+00 3.135089999999999932e+00 6.768200000000000216e+00 3.036039999999999850e+00 8.266460000000000363e+00 6.743929999999999758e+00 8.113810000000000855e+00 3.122689999999999966e+00 6.707010000000000360e+00 8.143480000000000274e+00 8.257889999999999731e+00 9.601100000000000190e-01 1.866919999999999913e+00 4.197500000000000120e-01 9.621399999999999952e-01 1.897729999999999917e+00 5.703229999999999578e+00 9.913199999999999790e-01 6.931549999999999656e+00 4.961400000000000254e-01 9.452500000000000346e-01 7.028909999999999769e+00 5.670869999999999855e+00 1.759339999999999904e+00 4.417650000000000077e+00 4.410890000000000200e+00 1.764739999999999975e+00 4.428790000000000227e+00 9.645369999999999777e+00 1.719000000000000083e+00 9.578310000000000102e+00 4.330189999999999984e+00 1.757069999999999910e+00 9.486850000000000449e+00 9.590460000000000207e+00 8.808099999999999818e-01 4.434849999999999959e+00 1.800640000000000018e+00 9.251099999999999879e-01 4.477369999999999628e+00 7.039320000000000022e+00 8.984400000000000164e-01 9.536300000000000665e+00 1.727659999999999973e+00 9.617900000000000338e-01 9.512959999999999638e+00 6.988170000000000215e+00 3.606040000000000134e+00 3.734070000000000000e+00 1.212560000000000082e+00 3.643619999999999859e+00 3.785299999999999887e+00 6.414939999999999642e+00 3.561030000000000140e+00 8.776180000000000092e+00 1.229619999999999935e+00 3.661109999999999864e+00 8.831569999999999254e+00 6.403749999999999609e+00
3.158189999999999831e+00 1.257500000000000007e-01 2.688550000000000217e+00 2.050380000000000091e+00 1.673300000000000065e-01 8.530810000000000670e+00 2.327920000000000211e+00 5.183690000000000353e+00 2.548989999999999867e+00 2.746820000000000039e+00 4.723559999999999981e+00 7.928289999999999615e+00 1.165199999999999986e-01 2.723780000000000090e+00 2.924799999999999844e+00 1.016202999999999967e+01 2.687320000000000153e+00 8.000540000000000873e+00 1.025381999999999927e+01 7.987079999999999735e+00 2.946439999999999948e+00 1.019458000000000020e+01 7.448409999999999975e+00 8.050850000000000506e+00 7.753440000000000332e+00 2.592140000000000111e+00 4.970519999999999605e+00 8.270429999999999282e+00 3.031379999999999963e+00 1.038780999999999999e+01 8.101219999999999644e+00 7.815820000000000434e+00 5.506669999999999732e+00 7.281450000000000422e+00 7.817129999999999690e+00 1.004468999999999923e+01 5.078909999999999592e+00 5.226420000000000066e+00 4.683930000000000149e+00 5.233130000000000059e+00 5.009809999999999874e+00 1.038371000000000066e+01 5.288120000000000154e+00 1.010546000000000078e+01 5.471619999999999706e+00 5.370949999999999669e+00 1.035283000000000087e+01 1.054221000000000075e+01 5.792130000000000223e+00 2.490889999999999826e+00 2.261190000000000033e+00 5.242049999999999876e+00 2.101329999999999920e+00 7.705729999999999968e+00 5.525079999999999991e+00 7.720159999999999911e+00 2.145950000000000024e+00 4.903369999999999784e+00 7.801160000000000316e+00 8.018449999999999633e+00 7.948579999999999757e+00 5.495420000000000194e+00 2.320570000000000022e+00 7.296120000000000161e+00 4.954710000000000392e+00 7.225999999999999979e+00 8.041430000000000078e+00 1.025688000000000066e+01 3.214179999999999815e+00 7.901950000000000252e+00 1.334899999999999975e-01 7.844249999999999723e+00 4.850300000000000167e-01 4.667999999999999927e-02 5.475019999999999776e+00 1.017843000000000053e+01 1.017637999999999998e+01 4.665000000000000258e-01 1.206099999999999950e-01 5.343860000000000277e+00 5.272380000000000067e+00 4.022999999999999909e-01 5.515780000000000349e+00 1.046650999999999954e+01 3.040810000000000013e+00 2.271689999999999987e+00 5.234289999999999665e+00 2.780380000000000074e+00 2.485189999999999788e+00 2.671700000000000186e-01 2.828170000000000073e+00 8.027810000000000556e+00 4.913090000000000401e+00 2.845680000000000209e+00 7.670770000000000088e+00 1.016780999999999935e+01 1.489430000000000032e+00 3.703699999999999992e+00 9.845940000000000580e+00 9.455650000000000333e+00 6.832320000000000171e+00 9.757220000000000226e+00 6.344669999999999810e+00 6.354790000000000383e+00 3.289350000000000218e+00 8.888799999999999812e+00 8.856980000000000075e+00 7.652490000000000236e+00 4.157359999999999722e+00 9.303700000000000303e-01 4.181339999999999613e+00 3.242150000000000087e+00 1.051889999999999992e+00 9.477840000000000487e+00 4.558130000000000237e+00 6.728200000000000180e+00 5.941430000000000433e+00 3.887789999999999857e+00 6.206590000000000273e+00 8.989969999999999573e+00 3.716720000000000024e+00 3.679149999999999920e+00 6.454880000000000173e+00 6.852619999999999933e+00 4.293309999999999960e+00 1.082989999999999897e+00 4.522789999999999644e+00 6.079649999999999999e+00 1.071159999999999890e+00 3.670700000000000074e+00 9.018150000000000333e+00 6.455659999999999954e+00 8.350139999999999674e+00 1.835420000000000051e+00 8.523199999999999221e+00 6.704030000000000378e+00 1.272759999999999891e+00 3.321099999999999941e+00 8.856870000000000687e+00 6.637470000000000425e+00 4.210670000000000357e+00 3.624810000000000088e+00 6.274070000000000036e+00 3.715240000000000098e+00 8.898569999999999425e+00 3.353470000000000173e+00 6.568760000000000154e+00 9.522410000000000707e+00 4.160619999999999763e+00 9.148920000000000385e+00 9.409269999999999357e+00 9.232659999999999201e+00 4.256319999999999659e+00 7.737969999999999793e+00 9.609790000000000276e+00 9.724299999999999500e+00 4.016969999999999708e+00 1.207540000000000058e+00 1.407640000000000002e+00 4.158350000000000435e+00 8.677599999999999758e-01 6.955599999999999561e+00 3.273880000000000123e+00 8.903819999999999624e+00 8.757339999999999236e+00 1.046540000000000026e+00 7.070249999999999702e+00 6.140410000000000146e+00 1.878220000000000001e+00 1.756340000000000012e+00 3.686659999999999826e+00 1.345000000000000084e-01 9.386999999999999789e-01 9.350860000000000838e+00 1.462490000000000068e+00 6.590790000000000148e+00 3.592379999999999907e+00 1.557649999999999979e+00 6.200849999999999973e+00 9.033129999999999882e+00 6.274849999999999817e+00 9.300539999999999807e+00 1.368270000000000097e+00 6.061090000000000089e+00 3.993640000000000079e+00 6.215250000000000163e+00 6.918099999999999916e+00 6.667679999999999829e+00 8.579599999999999449e-01 6.521779999999999688e+00 8.613239999999999341e+00 6.988199999999999967e+00 6.438990000000000435e+00 1.596670000000000034e+00 4.390600000000000058e-01 6.119620000000000282e+00 4.193999999999999950e-01 8.746449999999999392e+00 6.761379999999999946e+00 6.230620000000000047e+00 5.743190000000000239e+00 6.330809999999999604e+00 6.491270000000000095e+00 8.464510000000000645e+00 6.742040000000000255e+00 3.626570000000000071e+00 8.747080000000000410e+00 6.722400000000000375e+00 3.834979999999999833e+00 3.359109999999999818e+00 8.731230000000000047e+00 8.991080000000000183e+00 1.708539999999999948e+00 9.329679999999999751e+00 1.353089999999999904e+00 1.719680000000000097e+00 7.200190000000000090e+00 9.449699999999999767e-01 6.060229999999999784e+00 4.291059999999999874e+00 3.445500000000000007e+00 3.643780000000000019e+00 9.435079999999999245e+00 6.377979999999999983e+00 1.493889999999999940e+00 9.511100000000000776e+00 3.974509999999999987e+00 1.246779999999999999e+00 9.335610000000000852e+00 1.861429999999999918e+00 4.647739999999999760e+00 6.839739999999999931e+00 9.082950000000000301e+00 4.277190000000000047e+00 5.245230000000000281e+00 8.298560000000000159e+00 9.930289999999999395e+00 1.583879999999999955e+00 1.405259999999999954e+00 1.004680000000000017e+00 1.498950000000000005e+00 1.382319999999999993e+00 6.940640000000000143e+00 2.083940000000000126e+00 6.047659999999999592e+00 5.568100000000000271e-01 9.261599999999999611e+00 5.932269999999999932e+00 6.751330000000000275e+00 9.108219999999999317e+00 4.320249999999999702e+00 3.698139999999999983e+00 9.764000000000000457e-01 4.385930000000000106e+00 7.304870000000000196e+00 1.647350000000000092e+00 9.729210000000000136e+00 4.298300000000000232e+00 6.430200000000000360e-01 8.853289999999999438e+00 9.681599999999999540e+00 1.404919999999999947e+00 3.580319999999999947e+00 1.648099999999999898e+00 1.382079999999999975e+00 4.053600000000000314e+00 4.575370000000000381e+00 9.793300000000000338e-01 8.979029999999999845e+00 1.849239999999999995e+00 1.097299999999999942e+00 9.436980000000000146e+00 7.171310000000000073e+00 4.165759999999999685e+00 3.717979999999999841e+00 1.470040000000000013e+00 4.109300000000000175e+00 3.702399999999999913e+00 9.259439999999999671e+00 3.364100000000000090e+00 9.122809999999999420e+00 7.064599999999999769e-01 4.359639999999999738e+00 8.813010000000000232e+00 3.641160000000000174e+00
2.539299999999999891e+00 1.949200000000000099e-01 2.878659999999999997e+00 2.270290000000000141e+00 1.041787000000000063e+01 7.979840000000000266e+00 2.949050000000000171e+00 4.532180000000000319e+00 2.696369999999999933e+00 2.517209999999999948e+00 5.347039999999999793e+00 7.943080000000000140e+00 1.716999999999999915e-01 2.622110000000000163e+00 2.962079999999999824e+00 1.032000000000000001e-01 2.967560000000000198e+00 8.180339999999999279e+00 6.350200000000000289e-01 7.870770000000000266e+00 2.341769999999999907e+00 4.680999999999999744e-02 7.747620000000000395e+00 7.453560000000000407e+00 8.038370000000000459e+00 3.062380000000000102e+00 5.349590000000000067e+00 7.913809999999999789e+00 2.535649999999999959e+00 6.369999999999999794e-03 7.861609999999999765e+00 8.015409999999999258e+00 5.187210000000000321e+00 7.944729999999999848e+00 7.633469999999999978e+00 1.040609000000000073e+01 5.288579999999999615e+00 5.566060000000000230e+00 5.554120000000000168e+00 5.086660000000000181e+00 5.724280000000000257e+00 1.053988999999999976e+01 5.738019999999999676e+00 2.179399999999999948e-01 5.171210000000000306e+00 5.691360000000000419e+00 1.522100000000000120e-01 5.532999999999999724e-02 5.714850000000000207e+00 2.594219999999999970e+00 2.459029999999999827e+00 4.944960000000000022e+00 2.827970000000000095e+00 8.286199999999999122e+00 5.046940000000000204e+00 7.447169999999999845e+00 2.431630000000000180e+00 5.519120000000000026e+00 8.013159999999999172e+00 7.976200000000000401e+00 7.638390000000000235e+00 5.281439999999999912e+00 2.975150000000000183e+00 7.635720000000000063e+00 4.637999999999999901e+00 8.236069999999999780e+00 8.095489999999999853e+00 9.584770000000000678e+00 2.439070000000000071e+00 8.116799999999999571e+00 5.515299999999999647e-01 7.930589999999999584e+00 3.009999999999999828e-02 1.044486999999999988e+01 4.943190000000000417e+00 1.005633000000000088e+01 1.033187000000000033e+01 1.061298999999999992e+01 4.727100000000000191e-01 5.462250000000000050e+00 4.737860000000000404e+00 3.334799999999999986e-01 5.531950000000000145e+00 1.060069000000000017e+01 2.600680000000000103e+00 2.596130000000000049e+00 5.590939999999999799e+00 2.811819999999999986e+00 2.596760000000000179e+00 1.372500000000000109e-01 2.561799999999999855e+00 8.157790000000000319e+00 5.609980000000000189e+00 2.762849999999999806e+00 8.563409999999999300e+00 1.026539000000000001e+01 9.158789999999999765e+00 6.939180000000000348e+00 1.002510000000000012e+00 8.668020000000000280e+00 4.651449999999999640e+00 6.517599999999999838e+00 2.414239999999999942e+00 9.083059999999999690e+00 1.501090000000000035e+00 9.224370000000000402e+00 9.104599999999999582e+00 9.103650000000000020e+00 4.669290000000000163e+00 6.809600000000000097e-01 3.523709999999999898e+00 3.774519999999999875e+00 1.017961000000000027e+01 9.843920000000000670e+00 4.347629999999999661e+00 5.824209999999999887e+00 3.731279999999999930e+00 7.079629999999999868e+00 3.961329999999999796e+00 1.595029999999999948e+00 1.485589999999999966e+00 4.121340000000000003e+00 9.377119999999999678e+00 3.486310000000000020e+00 3.750199999999999978e+00 6.943159999999999776e+00 4.064519999999999911e+00 7.309230000000000338e+00 9.464069999999999538e+00 9.516209999999999170e+00 2.194310000000000205e+00 1.667200000000000015e+00 8.595349999999999824e+00 2.740650000000000031e+00 7.848119999999999763e+00 9.135540000000000660e+00 9.216120000000000090e+00 4.128750000000000142e+00 8.927839999999999776e+00 7.736869999999999692e+00 6.811799999999999855e+00 9.140140000000000597e+00 4.111449999999999605e+00 3.599470000000000169e+00 1.006229999999999958e+00 4.333969999999999878e+00 6.748409999999999798e+00 9.417279999999999873e+00 1.051746999999999943e+01 6.836389999999999745e+00 1.013753999999999955e+01 9.427649999999999864e+00 1.615790000000000060e+00 4.025459999999999816e+00 1.297749999999999959e+00 8.023500000000000076e-01 3.637669999999999959e+00 6.348069999999999879e+00 6.362770000000000259e+00 3.839989999999999792e+00 6.450919999999999987e+00 1.420360000000000067e+00 3.990699999999999914e+00 1.066789999999999905e+00 6.826249999999999929e+00 1.613799999999999901e+00 1.259050000000000002e+00 4.479529999999999568e+00 1.628130000000000077e+00 1.363320000000000087e+00 1.030179000000000045e+01 1.490520000000000067e+00 6.124310000000000365e+00 2.940370000000000150e+00 1.386290000000000022e+00 6.540409999999999613e+00 8.680600000000000094e+00 6.744119999999999671e+00 1.877930000000000099e+00 4.177130000000000010e+00 6.997580000000000133e+00 1.156220000000000026e+00 9.770949999999999136e+00 6.452950000000000408e+00 6.904250000000000220e+00 1.274329999999999963e+00 6.274479999999999613e+00 7.206859999999999822e+00 6.329570000000000363e+00 7.171459999999999724e+00 1.416560000000000041e+00 6.448109999999999786e+00 6.897879999999999789e+00 1.155780000000000030e+00 1.580089999999999995e+00 6.519230000000000302e+00 6.771259999999999835e+00 3.925349999999999895e+00 6.620149999999999757e+00 6.489919999999999689e+00 8.913299999999999557e+00 6.441340000000000288e+00 4.217229999999999812e+00 9.758480000000000487e+00 6.585370000000000168e+00 4.282779999999999809e+00 4.074720000000000120e+00 7.690520000000000245e+00 9.495599999999999596e+00 5.520500000000000407e-01 6.698680000000000412e+00 9.382059999999999178e+00 6.431210000000000093e+00 9.475709999999999411e+00 1.804400000000000004e+00 4.722550000000000026e+00 9.748670000000000613e+00 1.234290000000000109e+00 9.217890000000000583e+00 9.270580000000000709e+00 6.468169999999999753e+00 4.181700000000000195e+00 9.037349999999999994e+00 6.268799999999999706e+00 9.031700000000000728e+00 4.129570000000000185e+00 4.723349999999999937e+00 9.012769999999999726e+00 6.135550000000000281e+00 4.221149999999999736e+00 6.881070000000000242e+00 6.787530000000000285e+00 9.570980000000000487e+00 3.643819999999999837e+00 6.621570000000000178e+00 8.961470000000000269e+00 9.497439999999999216e+00 2.017189999999999817e+00 1.776149999999999896e+00 1.978380000000000027e+00 1.803090000000000082e+00 4.368680000000000341e+00 9.825800000000000090e-01 8.840099999999999625e-01 7.358369999999999855e+00 1.093979000000000035e+01 1.177110000000000101e+00 6.902610000000000134e+00 6.020290000000000141e+00 9.381069999999999354e+00 3.887469999999999981e+00 1.021151000000000053e+01 3.750700000000000145e+00 2.185849999999999849e+00 9.421780000000000044e+00 1.327839999999999909e+00 9.259430000000000049e+00 4.021729999999999805e+00 1.118540000000000090e+00 9.394909999999999428e+00 9.438789999999999125e+00 3.894569999999999865e+00 2.762439999999999785e+00 3.616330000000000044e+00 1.430800000000000072e+00 3.843519999999999825e+00 4.095320000000000071e+00 5.155990000000000073e+00 9.206450000000000244e+00 1.447969999999999979e+00 1.137429999999999941e+00 1.323919999999999986e+00 7.078669999999999796e+00 4.650649999999999729e+00 4.021250000000000213e+00 7.786899999999999933e-01 3.750690000000000079e+00 8.957829999999999515e+00 7.217880000000000074e+00 4.053679999999999950e+00 8.505800000000000693e+00 4.395190000000000374e+00 1.090729999999999977e+00 9.321960000000000690e+00 6.595699999999999896e+00