4.879283734538957162e+01 -3.047156584505394061e+00 -6.329179178166168818e+00 -3.047156584505394061e+00 3.134034539889319504e+01 1.506756720509834224e+01 -6.329179178166168818e+00 1.506756720509834224e+01 -1.586541821477474912e+01
5.417192527508162492e+00 -2.659259555151977095e-01 1.929310113143848593e+00 -2.659259555151977095e-01 7.442850891491075593e+00 -5.012062183378073188e-01 1.929310113143848593e+00 -5.012062183378073188e-01 7.542806471862347095e+00
5.629066954400091305e+01 1.778891560050977150e+00 1.487861311656149821e-01 1.778891560050977150e+00 2.533339486371345117e+01 7.748175412983034083e-02 1.487861311656149821e-01 7.748175412983034083e-02 -1.464666833611249608e+01
-9.937921961458938469e+00 -5.685318613977528024e+00 2.843673133459153402e+00 -5.685318613977528024e+00 -1.449005597294863890e+01 8.797173530023485455e+00 2.843673133459153402e+00 8.797173530023485455e+00 -5.785395817044502564e+01
-1.245866829124635800e+01 7.580700002557229311e+00 1.272906858474738812e+01 7.580700002557229311e+00 -2.269706796175569963e+01 -2.430482371432965749e+00 1.272906858474738812e+01 -2.430482371432965749e+00 -5.274553844949861059e+01
4.802206950998268553e+01 -4.328996357702111553e+00 8.489490615221896519e+00 -4.328996357702111553e+00 4.487013506856236233e+01 1.146929311659734552e+01 8.489490615221896519e+00 1.146929311659734552e+01 -3.390890676099763912e+00
4.837892897315310137e+01 -6.843069519747453811e+00 6.984739603297309252e+00 -6.843069519747453811e+00 2.168671614943292880e+01 -9.070297958869106836e+00 6.984739603297309252e+00 -9.070297958869106836e+00 6.838255941169514074e+00
2.254407845904943386e+01 1.316945183635137795e+00 -1.583019228636203701e+00 1.316945183635137795e+00 1.789883162929491789e+01 -1.028354113052949659e+00 -1.583019228636203701e+00 -1.028354113052949659e+00 1.465254711658165121e+01
-6.065721767087386240e+01 -6.347973952123332708e+00 1.044158312722205606e+00 -6.347973952123332708e+00 -3.039787221960885333e+01 -2.755753194269044215e+01 1.044158312722205606e+00 -2.755753194269044215e+01 2.243836920666378987e+01
-2.166270264800766654e+01 1.600644962296977880e+01 2.714394614520933668e+00 1.600644962296977880e+01 -4.668162234535265043e+01 5.305940885673339658e+00 2.714394614520933668e+00 5.305940885673339658e+00 -4.986917744260666296e+01
-3.840479546066390970e+00 -1.056992757763465463e+01 -3.111587493266862570e+00 -1.056992757763465463e+01 -1.457322829850549262e+01 -1.315643205618858680e+01 -3.111587493266862570e+00 -1.315643205618858680e+01 -4.976678848499970087e+01
1.594008984098432169e+00 1.376896108915571837e+01 8.022704031593783647e-01 1.376896108915571837e+01 -4.191502636569765627e+01 1.638154558567484642e+01 8.022704031593783647e-01 1.638154558567484642e+01 -6.931662204752026923e+01
-3.215607669821943659e+01 -9.316933321151424252e+00 -1.586458409288337990e+01 -9.316933321151424252e+00 -3.809781402706536824e+01 4.394172435481876526e+00 -1.586458409288337990e+01 4.394172435481876526e+00 -5.517484366831175180e+01
-3.590020227036011136e+01 -9.351113174700712349e+00 6.556810452797781075e+00 -9.351113174700712349e+00 -1.515073765892788948e+01 -4.365617629645388575e+00 6.556810452797781075e+00 -4.365617629645388575e+00 -7.707085014625529595e+01
-2.832718621518359825e+01 -5.265816739598638385e+00 -4.624527246722720975e+00 -5.265816739598638385e+00 -5.298937537656721020e+01 -2.613206521597213783e+00 -4.624527246722720975e+00 -2.613206521597213783e+00 -8.330736293101257672e+01
5.968275730578945115e+01 -1.212548102469839151e+01 1.069447086749869236e+01 -1.212548102469839151e+01 4.047947185474851750e+01 6.700705306025325214e+00 1.069447086749869236e+01 6.700705306025325214e+00 1.244921171425493611e+01
-6.683467026956114410e+01 -1.638903399754464729e+01 1.954612849320507451e+01 -1.638903399754464729e+01 -5.038917226968039387e+01 -7.250050116104906905e-01 1.954612849320507451e+01 -7.250050116104906905e-01 -6.726783928721627781e+00
1.957978976168857344e+01 -3.035099458668809369e+00 3.130388748749040495e+00 -3.035099458668809369e+00 1.807148204949326598e+01 3.190061911016513374e+00 3.130388748749040495e+00 3.190061911016513374e+00 -3.832410267615915700e+01
-1.377519331254754320e+01 -3.955652788266889264e+00 -5.225676148661529297e+00 -3.955652788266889264e+00 -2.703418223283500410e+01 1.083338461991605994e+00 -5.225676148661529297e+00 1.083338461991605994e+00 -1.795896923679650570e+01
5.901417729955202418e+00 3.714715772196701127e-01 6.630855990634556996e+00 3.714715772196701127e-01 4.184315326226417220e+00 2.696963421840582568e-03 6.630855990634556996e+00 2.696963421840582568e-03 2.856546026697184715e+00
1.296369749140240124e+01 2.166362969462323562e+01 2.040107805002122632e+01 2.166362969462323562e+01 -3.132250891251993252e+01 -2.425962344377017743e+00 2.040107805002122632e+01 -2.425962344377017743e+00 -3.688491567959275841e+01
2.460131978091339988e+01 3.640720482013095616e+00 9.511086458495478624e+00 3.640720482013095616e+00 4.084753379289801956e+01 -1.632592805386540391e+00 9.511086458495478624e+00 -1.632592805386540391e+00 4.186849288794824275e+01
4.272197933854424434e+01 -1.968380407619958916e+01 -2.053867832011737704e+01 -1.968380407619958916e+01 3.562930195024039648e+01 -3.709258702605965574e+00 -2.053867832011737704e+01 -3.709258702605965574e+00 1.191114153612394944e+01
-2.922547373763626766e+01 -7.257403317237110407e+00 1.312174924206766313e+01 -7.257403317237110407e+00 -5.743930498886559377e+00 -8.671340362231161336e+00 1.312174924206766313e+01 -8.671340362231161336e+00 -7.645930761062486170e+01
-1.098631221809941216e+01 -2.974969060023258294e+01 -5.656038810895994473e+00 -2.974969060023258294e+01 -1.859359600684310010e+01 1.577040085936806779e+00 -5.656038810895994473e+00 1.577040085936806779e+00 -3.322024997147204317e+01
3.166556701917006666e+00 3.820364571338208393e+00 -4.783162426067668171e+00 3.820364571338208393e+00 2.947076337827802650e+00 -8.313027461747264368e+00 -4.783162426067668171e+00 -8.313027461747264368e+00 1.622952178406844226e+01
-1.029350944217449637e+01 1.935787782100108956e+01 -1.800054351898491722e+00 1.935787782100108956e+01 -1.986176626049585181e+01 -9.814194839605500320e+00 -1.800054351898491722e+00 -9.814194839605500320e+00 -5.772930858683725575e+01
-3.370395895830637301e+01 8.743563885221362852e+00 9.689242320002930953e+00 8.743563885221362852e+00 -3.438815364715986789e+01 -8.838186806069048274e-01 9.689242320002930953e+00 -8.838186806069048274e-01 -6.642535338063926531e+01
-2.187081756383750886e+01 1.763902065708636280e-01 -9.420477498912548597e+00 1.763902065708636280e-01 -1.056269393888335273e+01 -1.466584856674120552e+01 -9.420477498912548597e+00 -1.466584856674120552e+01 -7.389182380632452407e+01
2.720598926537454787e+01 3.273737782366668903e+00 1.786742186675958166e+01 3.273737782366668903e+00 -7.354187066816953333e+00 -7.033056407478316174e+00 1.786742186675958166e+01 -7.033056407478316174e+00 1.685316824514575096e+00
1.784643541522519072e+01 -1.701927060370616829e+01 -2.107779980622807159e+01 -1.701927060370616829e+01 1.625595381061551237e+01 -6.365222285506663802e+00 -2.107779980622807159e+01 -6.365222285506663802e+00 -3.772812141858932211e+00
-2.497501975652654593e+01 4.549966222978161667e+00 6.184617086437893541e+00 4.549966222978161667e+00 -1.644344731277623950e+01 -8.307199780465868599e+00 6.184617086437893541e+00 -8.307199780465868599e+00 -2.070526852197407663e+01
4.921468946541371992e+01 1.019651698861059153e+01 -8.223124290399288938e+00 1.019651698861059153e+01 4.006372038654900081e+01 -2.541089075733144131e+00 -8.223124290399288938e+00 -2.541089075733144131e+00 3.884431632721155880e-01
-9.558780042252225329e+00 7.755201082216902186e+00 1.184038352404133931e+01 7.755201082216902186e+00 -1.231863508909029647e+01 -1.174055258715654482e+01 1.184038352404133931e+01 -1.174055258715654482e+01 -7.557650711092363416e+00
-2.913969090114282778e+01 1.335442052554343739e+01 -3.725213645500657055e-03 1.335442052554343739e+01 -1.009926662876098469e+01 -1.812610055171672130e+01 -3.725213645500657055e-03 -1.812610055171672130e+01 -2.356054236608289543e+01
-1.841169516126956296e+01 3.258346937831779755e+00 1.472925287202875033e+01 3.258346937831779755e+00 -3.607304652223743413e-01 -2.178089792764341226e+00 1.472925287202875033e+01 -2.178089792764341226e+00 4.456370857944824593e+01
-3.044428355424598465e+01 6.537224749229234355e+00 -1.238117814824063068e+01 6.537224749229234355e+00 -5.970807652397930809e+01 5.899705664492579160e+00 -1.238117814824063068e+01 5.899705664492579160e+00 -4.139090407074080247e+01
-1.524598397017836149e+01 -1.319056390808638213e+01 -3.333170598609896285e+00 -1.319056390808638213e+01 -2.654581566310173812e+01 3.730023524956408654e+00 -3.333170598609896285e+00 3.730023524956408654e+00 -2.467180462779933947e+01
-8.513295735403076492e+00 -3.165194650530671794e+01 -2.877238189144299518e+00 -3.165194650530671794e+01 -2.422324522934431812e+01 -2.140570843783592281e+01 -2.877238189144299518e+00 -2.140570843783592281e+01 -4.616061417797848065e+01
-1.625273067899718527e+01 1.143808918756182180e+01 3.907435716581125540e+00 1.143808918756182180e+01 -2.489521052993984895e+01 -2.678297993693687484e+00 3.907435716581125540e+00 -2.678297993693687484e+00 3.415907458379729977e+00
-9.028482759968831317e+00 -2.013168725425258998e+01 1.421408127095875784e+01 -2.013168725425258998e+01 -2.470041755102206338e+01 1.865894803493510778e+01 1.421408127095875784e+01 1.865894803493510778e+01 -4.384932357526318469e+01
2.395683200812955249e+01 2.835787358839000905e-01 -1.480750334547046965e+00 2.835787358839000905e-01 1.846563318099504158e+01 3.365453950102879066e+00 -1.480750334547046965e+00 3.365453950102879066e+00 1.714628088780972348e+01
1.353149609391700814e+01 -2.312896262384787605e+01 -2.351839084704654326e+01 -2.312896262384787605e+01 -1.960278910855107748e+00 -2.877624867848941115e+00 -2.351839084704654326e+01 -2.877624867848941115e+00 -1.384829834424902195e+01
1.706584087398535843e+01 -6.081364602818963405e+00 2.035071634354227754e+01 -6.081364602818963405e+00 5.504348069436884927e+00 1.526131040968665431e+01 2.035071634354227754e+01 1.526131040968665431e+01 -2.337283227951576947e+01
3.882576967888844433e+00 1.429275106895016201e+01 -5.871423810183589609e+00 1.429275106895016201e+01 -1.615434819396774202e+01 1.066465077315951504e+01 -5.871423810183589609e+00 1.066465077315951504e+01 -4.086449665005923038e+01
-2.541452021803910810e+01 7.459081559538382145e+00 9.790380844014386241e+00 7.459081559538382145e+00 -3.806861299083372074e+01 2.859139050091149326e+00 9.790380844014386241e+00 2.859139050091149326e+00 -6.606933999440668970e+01
3.979492642263235069e+01 6.550605529378728420e+00 -6.126517585659870591e+00 6.550605529378728420e+00 4.305123783479833577e+01 -1.123878419271328788e+01 -6.126517585659870591e+00 -1.123878419271328788e+01 3.520708534953106295e+01
-2.655318647654669206e+01 1.636269054723570093e+00 6.979527053439039896e+00 1.636269054723570093e+00 -1.014585804282932280e+01 1.324688460359791620e+01 6.979527053439039896e+00 1.324688460359791620e+01 -3.331482715227302549e+01
-1.994073845274259327e+01 1.201208628954478996e+01 1.347968538517454995e+01 1.201208628954478996e+01 -2.458185693218980816e+01 6.442892759966922789e-01 1.347968538517454995e+01 6.442892759966922789e-01 -3.645492940782389013e+01
1.985839155556694635e+01 2.363702732138510498e+01 2.285826745077564937e+01 2.363702732138510498e+01 1.206777727924243759e+00 -3.400166846936495957e-01 2.285826745077564937e+01 -3.400166846936495957e-01 -1.025007918929413364e+01
1.490566374421402962e+01 1.933124359233528722e+01 -4.099298020061271863e+00 1.933124359233528722e+01 -2.695530005745039404e+01 -3.872299472236803819e+00 -4.099298020061271863e+00 -3.872299472236803819e+00 -1.710251117456159875e+01
3.311696775006730320e+01 -1.447206283923128112e+00 1.560281675989440231e+00 -1.447206283923128112e+00 3.050566673581267807e+01 -1.138231497492149386e-01 1.560281675989440231e+00 -1.138231497492149386e-01 3.486008929808229340e+01
-1.278514344265573222e+01 1.005150042881437278e+00 -7.000846116165823751e+00 1.005150042881437278e+00 -1.466450933086649755e+01 -3.573583286496606615e+00 -7.000846116165823751e+00 -3.573583286496606615e+00 -5.388243084240909297e+01
6.177381362415658828e+01 -2.891864472207304360e+00 -4.963766083253886130e+00 -2.891864472207304360e+00 6.426748414709983592e+01 -8.921370824256337428e+00 -4.963766083253886130e+00 -8.921370824256337428e+00 1.896221906989422834e+01
-7.720797118028564832e+00 3.920351687355240422e+00 -7.980450333456618139e+00 3.920351687355240422e+00 -3.697964783700916858e+00 -2.634215804959754159e+00 -7.980450333456618139e+00 -2.634215804959754159e+00 -1.331635401363728555e+01
1.584172451711190632e+01 2.287151298949608780e+00 -1.447639178498487222e+00 2.287151298949608780e+00 1.233536084138638778e+01 -8.489253877338525101e-01 -1.447639178498487222e+00 -8.489253877338525101e-01 2.196651697419688354e+00
-3.808972559854181839e+01 -8.840231069759083127e+00 2.304686719309614329e-01 -8.840231069759083127e+00 -2.491190364313359495e+01 -9.124379526482606195e+00 2.304686719309614329e-01 -9.124379526482606195e+00 -6.384215171143888057e+01
-1.478900797980964654e+01 -8.552762465345857379e+00 2.252521758511746075e+00 -8.552762465345857379e+00 4.006977287344762217e+00 -2.521875803557954043e+00 2.252521758511746075e+00 -2.521875803557954043e+00 -7.365506552210342761e+01
-1.371933486739841079e+01 -1.259290522864880657e+01 8.208014894952414542e-01 -1.259290522864880657e+01 -2.990570000695785424e+01 1.039200728801641205e+01 8.208014894952414542e-01 1.039200728801641205e+01 -1.546227824417526975e+01
4.974707508631640707e+01 1.638225187566262875e+01 -9.796850878841601329e+00 1.638225187566262875e+01 2.860076959560901599e+01 1.569807136757581745e+01 -9.796850878841601329e+00 1.569807136757581745e+01 -1.949862821111989319e+01
2.034992447485681311e+01 -1.233972500749165668e+01 -1.354202430205543806e+01 -1.233972500749165668e+01 -2.301585566990479848e+01 2.318134234760179879e+01 -1.354202430205543806e+01 2.318134234760179879e+01 -3.554847866128147160e+01
-1.292532610894031286e+01 -1.113089202541974210e+01 1.396680694987563953e+01 -1.113089202541974210e+01 -6.490493231348363201e-01 1.425019867124957784e+01 1.396680694987563953e+01 1.425019867124957784e+01 -4.037730802847673317e+01
3.107106948544642577e+01 -1.178317890646779720e+00 1.189390392365764715e+00 -1.178317890646779720e+00 3.249015679032680026e+01 2.519187991989426223e+00 1.189390392365764715e+00 2.519187991989426223e+00 3.731937091690785024e+01
1.438305683800040669e+01 1.493663822839254074e+01 -5.859401422607283472e+00 1.493663822839254074e+01 -9.657718291869507254e+00 -5.418403356009050542e-01 -5.859401422607283472e+00 -5.418403356009050542e-01 -5.877531542094591543e+01
-3.062414700405335566e+01 -7.359228305517516944e+00 9.212496930895436309e-01 -7.359228305517516944e+00 -5.303222419632601969e+01 1.889540927469209919e+01 9.212496930895436309e-01 1.889540927469209919e+01 -5.635324110584070922e+01
-4.332782750387179505e+01 -3.140228424002901519e+01 -3.518572169828649621e+00 -3.140228424002901519e+01 -9.069179840230320977e+00 -1.184531968262298562e+01 -3.518572169828649621e+00 -1.184531968262298562e+01 -3.334393991359636544e+01
3.195459032547353306e+00 -1.226318196375271974e+01 2.999031065719364619e+00 -1.226318196375271974e+01 -1.586523858880847904e+01 -6.782166568580243471e+00 2.999031065719364619e+00 -6.782166568580243471e+00 -1.619097122911456665e+01
1.043876050071229855e+01 1.166136953346030181e+00 -9.077288800356089205e-01 1.166136953346030181e+00 9.969484142398741255e+00 1.325749292627298015e+00 -9.077288800356089205e-01 1.325749292627298015e+00 1.236965562338015623e+01
5.633560319375007452e+01 2.811278636625628824e+00 1.326546080113385173e+01 2.811278636625628824e+00 4.843440370372385928e+01 1.632750948250194289e+00 1.326546080113385173e+01 1.632750948250194289e+00 2.569294695640566228e+00
6.927263391946408433e+01 9.787031387699325791e+00 9.442693935109987891e+00 9.787031387699325791e+00 4.898068068439038569e+01 -3.651298585152840559e+00 9.442693935109987891e+00 -3.651298585152840559e+00 -2.133891329371128265e+01
2.374121096675023423e+01 -5.912058025605746892e+00 -1.150794068139069815e+01 -5.912058025605746892e+00 1.517713359788115568e+01 1.844346730135788093e+01 -1.150794068139069815e+01 1.844346730135788093e+01 -4.420403691758256315e+01
-2.018470110388505745e+01 1.926048073096844560e+00 -1.362725531610166518e+00 1.926048073096844560e+00 -1.565536430330134543e+01 -1.568077581905128781e+01 -1.362725531610166518e+00 -1.568077581905128781e+01 -5.495373410415162851e+01
1.166670606228503360e+01 -2.245226040255214883e+00 5.494813146259426517e+00 -2.245226040255214883e+00 2.080529732413833699e+01 -5.159295162910139398e-02 5.494813146259426517e+00 -5.159295162910139398e-02 2.967773393983970109e+01
5.934022209846267515e+01 1.095721249483502246e+00 -1.233050342359012674e+00 1.095721249483502246e+00 3.644360951265930026e+01 -1.087264054018958204e+00 -1.233050342359012674e+00 -1.087264054018958204e+00 1.938078349285554225e+01
-3.046100199013895349e+01 5.456655262202013468e+00 -6.271959617238942464e+00 5.456655262202013468e+00 -4.312729942174122044e+01 2.232580213352195031e+01 -6.271959617238942464e+00 2.232580213352195031e+01 -4.749791433804345786e+01
1.502393792592931199e+01 6.316168981328455168e+00 3.197475655295109132e+00 6.316168981328455168e+00 2.011762404716896313e+01 4.975437251984144105e+00 3.197475655295109132e+00 4.975437251984144105e+00 -9.263443657144522447e+00
-1.211673137118422794e+01 9.072549684253646163e+00 -1.164030111274623813e+01 9.072549684253646163e+00 -3.014296125197304832e+01 -4.435963832058671841e+00 -1.164030111274623813e+01 -4.435963832058671841e+00 -7.073424174243152152e+01
-3.136881451295295875e+01 -7.748226647795396715e+00 -1.421028413819992764e+01 -7.748226647795396715e+00 -4.599037873179985070e+01 -9.112309035174416261e-01 -1.421028413819992764e+01 -9.112309035174416261e-01 -4.439950179717843071e+01
2.694765917279990575e+01 1.392382794491522091e+01 3.945099209526362838e+00 1.392382794491522091e+01 2.176517841735179459e+01 -2.116161615480372404e+00 3.945099209526362838e+00 -2.116161615480372404e+00 1.599397140709406706e+01
1.191891006948397091e+01 -4.121084474582175972e+00 -3.890518005862803719e+00 -4.121084474582175972e+00 4.063885137919280410e+00 8.778185613356777495e+00 -3.890518005862803719e+00 8.778185613356777495e+00 -4.207819270013922086e+00
-2.577162438671850708e+01 -2.122979467216213223e+01 -1.681034200856383443e+00 -2.122979467216213223e+01 -2.581908617984734988e+01 -1.133164189780256059e+01 -1.681034200856383443e+00 -1.133164189780256059e+01 -5.378203699314544650e+01
6.704396571884443290e+01 -1.071897232008986833e+01 1.099685198324266544e+01 -1.071897232008986833e+01 6.348675807091961332e+01 4.500043705390624815e+00 1.099685198324266544e+01 4.500043705390624815e+00 6.804674700613088767e+00
-1.224196277849465808e+01 -9.537899479700937988e+00 8.449022740143201204e+00 -9.537899479700937988e+00 -2.539668558598219761e+01 -9.490322426164667036e+00 8.449022740143201204e+00 -9.490322426164667036e+00 -3.652475891094119476e+01
-2.365343308672401079e+01 8.399637491546572132e-01 3.938673909317697230e+00 8.399637491546572132e-01 -2.681906353161680912e+01 9.110097256529957832e+00 3.938673909317697230e+00 9.110097256529957832e+00 -3.681524178246006329e+01
4.137494167506916121e+00 -2.337054749609905002e+00 -2.462919085499671645e+00 -2.337054749609905002e+00 7.568629174139435811e+00 9.793641528226130211e-01 -2.462919085499671645e+00 9.793641528226130211e-01 9.830300007789723793e+00
1.634110244767407849e+01 1.238349110355203742e+01 -1.394336328742319608e+01 1.238349110355203742e+01 1.373567891489619974e+01 -8.487264940908575639e+00 -1.394336328742319608e+01 -8.487264940908575639e+00 -3.698756150255783837e+01
7.551073577146953042e+00 1.451207502971014196e-01 4.149067917097157832e+00 1.451207502971014196e-01 5.619420231979544766e+00 -1.097647027878458470e+00 4.149067917097157832e+00 -1.097647027878458470e+00 8.392883595274383879e+00
6.831376447106841887e+00 -2.584516808917936892e+00 -2.341938554502864367e+00 -2.584516808917936892e+00 2.873817773180732971e+01 -1.079787931033323467e+01 -2.341938554502864367e+00 -1.079787931033323467e+01 -3.441362377160525732e+00
2.204484485037947294e+01 -1.472494348340994641e+01 -6.934089240198038517e+00 -1.472494348340994641e+01 -6.755424564042114888e+00 -2.795417651072810150e-01 -6.934089240198038517e+00 -2.795417651072810150e-01 -1.484061273147293925e+01
-2.445802912950538754e+01 -1.010475489628390733e+00 8.460383409322385972e+00 -1.010475489628390733e+00 -5.460140590799244364e+01 -1.288012802314340988e+01 8.460383409322385972e+00 -1.288012802314340988e+01 -5.197248907895109227e+01
4.669927951221727547e+00 -2.756739421933064804e+01 -9.079625952675451472e+00 -2.756739421933064804e+01 -1.277778931996159173e+01 -2.789565459385989321e+00 -9.079625952675451472e+00 -2.789565459385989321e+00 -4.054037733384949149e+01
-2.940028661292623013e+01 2.311002137126861644e+00 1.222555072684406419e+01 2.311002137126861644e+00 -2.643414848607821810e+01 8.756505743098752959e+00 1.222555072684406419e+01 8.756505743098752959e+00 7.523553483456532298e+00
-3.458831578509347082e+01 -4.473290747138347179e+00 1.974049647735539637e+01 -4.473290747138347179e+00 -4.109919114581046529e+01 -4.101975798700524756e+00 1.974049647735539637e+01 -4.101975798700524756e+00 -4.688084760289081032e+01
-4.251624731900697185e+01 -1.973451200429527930e+01 -7.327191554270580554e+00 -1.973451200429527930e+01 -5.614815635251957104e+01 1.744514758460762138e+01 -7.327191554270580554e+00 1.744514758460762138e+01 -7.417776399909514851e+01
-7.759211467929925554e+00 2.472491330823984867e+00 -2.799356735290487563e+00 2.472491330823984867e+00 -1.776457826879625657e+01 -2.666603491857523878e+01 -2.799356735290487563e+00 -2.666603491857523878e+01 -2.586531377395362341e+01
-1.593917323343221781e+01 -2.034022522708116298e+01 5.234105806283682050e+00 -2.034022522708116298e+01 -1.366728564516330069e+00 -6.458466349546181817e+00 5.234105806283682050e+00 -6.458466349546181817e+00 -3.497355791880760023e+01
-1.398391283294263054e+01 5.122515492647003121e+00 -1.630318877170505942e+01 5.122515492647003121e+00 5.785121413424620052e+00 1.601632681381878420e+00 -1.630318877170505942e+01 1.601632681381878420e+00 -5.660133885882098781e+01
3.766424712899703309e+01 -4.457122665111455717e+00 -3.226108593076746800e+00 -4.457122665111455717e+00 4.092994562360788535e+01 -6.049322338237249852e+00 -3.226108593076746800e+00 -6.049322338237249852e+00 3.699820134806107319e+01
-3.971272285942351044e+00 -1.196837080981354884e+00 2.285609329016790703e+00 -1.196837080981354884e+00 -1.002946224294944733e+00 1.765397713322050532e-01 2.285609329016790703e+00 1.765397713322050532e-01 -1.603554545307203094e+00
-5.661455797741819396e+00 2.337033723802516860e+01 -4.856683988347747061e+00 2.337033723802516860e+01 -2.339458917448774855e+01 -3.011826279207474499e+01 -4.856683988347747061e+00 -3.011826279207474499e+01 -4.548252511472985304e+01
