2.805619000000000085e+00 2.108859999999999901e-01 -3.369787000000000088e+00 1.876044999999999963e+00 4.062709999999999932e-01 4.119175000000000253e+00 7.369259999999999700e+00 5.403792000000000151e+00 -2.322592000000000212e+00 5.128380000000000161e-01 -2.798229999999999884e-01 -7.600440000000000529e-01 -2.626697000000000060e+00 4.709253000000000355e+00 -1.552726999999999968e+00 -1.859939999999999927e-01 -2.556519999999999904e-01 1.332136999999999905e+00 1.426419999999999910e-01 -1.948406000000000082e+00 -1.486566000000000054e+00 2.146831000000000156e+00 -2.167336000000000151e+00 -8.522239999999999815e-01 -3.114589999999999859e-01 2.463436000000000181e+00 -6.957410000000000538e-01 3.346045999999999854e+00 3.867659999999999987e-01 -6.405950000000000255e-01 1.499811999999999923e+00 4.951519999999999810e-01 3.794890000000000096e+00 3.385515999999999970e+00 -1.701380000000000114e-01 -1.501460000000000017e+00 -1.134217000000000031e+00 1.166500000000000002e-02 1.681176000000000004e+00 -1.359186000000000005e+00 -1.983679999999999888e-01 -4.457400000000000251e-02 -2.632983999999999991e+00 -1.475711999999999913e+00 1.261093000000000020e+00 1.549716000000000093e+00 2.895071999999999868e+00 -6.212509999999999977e-01 -2.002740000000000076e-01 8.257370000000000543e-01 -1.920576999999999979e+00 -3.112579999999999902e+00 4.019324000000000119e+00 2.524859000000000187e+00 -1.437035999999999980e+00 1.567736999999999936e+00 7.484420000000000517e-01 -1.024874999999999980e+00 -2.262780999999999931e+00 1.096171000000000006e+00 1.568470000000000031e+00 -1.711397999999999975e+00 7.664659999999999807e-01 2.207629999999999870e-01 -1.116827000000000014e+00 -1.881091999999999986e+00 1.416727999999999987e+00 -1.518798000000000092e+00 -2.715381999999999962e+00 1.972412000000000054e+00 -1.301072000000000006e+00 1.606978000000000018e+00 -1.377800000000000032e-02 -7.424560000000000048e-01 1.347104000000000079e+00 1.884574999999999889e+00 -2.422959999999999781e+00 -1.351083999999999952e+00 -3.549234000000000222e+00 -7.306869999999999754e-01 1.014383000000000035e+00 1.248540999999999901e+00 -4.199890000000000012e-01 2.093649999999999789e+00 1.834009000000000000e+00 -2.544229000000000074e+00 2.163136999999999865e+00 -4.040200000000000041e-02 2.277589999999999892e-01 -2.734596999999999944e+00 1.694272000000000000e+00 -1.138412999999999897e+00 1.918407999999999891e+00 -4.541376999999999775e+00 -9.957270000000000287e-01 2.970599999999999907e-01 -1.635429000000000022e+00 4.848790000000000044e-01 9.667189999999999950e-01 -7.286299999999999721e-02 -5.739090000000000025e-01 -1.596862000000000004e+00 2.724400000000000155e-01 -2.749779999999999891e+00 1.323874999999999913e+00 2.615800000000000070e-02 1.128039999999999932e+00 -2.116879999999999873e-01 3.961709999999999954e-01 1.252834999999999921e+00 9.746599999999999708e-02 2.101249000000000144e+00 7.413659999999999695e-01 -1.433543999999999929e+00 9.131209999999999605e-01 5.519549999999999734e-01 3.992530000000000245e-01 -3.975409999999999777e-01 -1.641450000000000076e+00 1.185388000000000108e+00 -5.213600000000000456e-01 8.998399999999999732e-01 1.131332000000000004e+00 2.149399999999999977e+00 6.459499999999999964e-02 -1.990936000000000039e+00 3.830109999999999904e-01 1.334256000000000109e+00 1.004782999999999982e+00 -1.488130000000000008e-01 1.921502999999999961e+00 1.413785999999999987e+00 -6.921589999999999687e-01 5.466520000000000268e-01 2.733889999999999931e-01 2.174359999999999904e-01 1.998226000000000058e+00 9.153500000000000525e-02 5.763080000000000425e-01 7.643119999999999914e-01 6.546159999999999757e-01 -1.520529999999999937e+00 -1.386684000000000028e+00 4.457579999999999876e-01 7.488599999999999424e-02 -7.413200000000000345e-02 7.382880000000000553e-01 2.650170999999999832e+00 1.073069000000000051e+00 -1.622069999999999901e+00 -6.968569999999999487e-01 9.065619999999999790e-01 9.219899999999999762e-01 1.200944000000000011e+00 1.943327000000000027e+00 1.911953999999999931e+00 -9.352030000000000065e-01 7.721930000000000183e-01 -1.552413000000000043e+00 1.322519000000000000e+00 6.029759999999999565e-01 9.731450000000000378e-01 -1.587820000000000065e-01 -1.303917999999999910e+00 -7.258199999999999374e-02 2.732015000000000082e+00 -1.225872000000000073e+00 3.489769999999999817e-01 9.673479999999999857e-01 1.680725000000000025e+00 1.385553000000000035e+00 7.848530000000000229e-01 -1.426900999999999975e+00 -8.198239999999999972e-01 6.097160000000000357e-01 -8.858690000000000175e-01 4.294120000000000159e-01 -1.533935000000000048e+00 2.010806999999999789e+00 2.578555000000000152e+00 3.083873999999999782e+00 -3.892168999999999990e+00 -1.916584000000000065e+00 -1.182908999999999988e+00 1.020842999999999945e+00 -4.035389999999999810e-01 -1.852311000000000041e+00 4.333879999999999955e-01 -7.669470000000000454e-01 -1.100147999999999904e+00 2.501400000000000151e-02 6.817849999999999744e-01 -1.710269999999999957e+00 -1.336640999999999968e+00 -3.013114999999999988e+00 -2.348263999999999907e+00 4.263149999999999995e-01 -6.240649999999999809e-01 3.018410000000000259e-01 -4.235340000000000216e-01 -1.879039999999999877e-01 -1.898916000000000048e+00 7.354349999999999499e-01 1.156292000000000098e+00 2.652570000000000205e-01 5.926759999999999806e-01 -9.465029999999999832e-01 -6.070560000000000400e-01 -7.725469999999999837e-01 8.050399999999999778e-01 2.915496000000000087e+00 1.564456999999999987e+00 -2.851621999999999879e+00 -3.566015999999999853e+00 -1.998269999999999991e+00 -5.684860000000000468e-01 -1.586664000000000074e+00 -5.065770000000000550e-01 1.025200000000000000e-01 -9.338840000000000474e-01 7.181239999999999846e-01 -2.393867000000000189e+00 -3.434899999999999759e-02 2.172566999999999915e+00 -1.678510000000000002e-01 -6.451179999999999692e-01 -2.102071000000000023e+00 -8.249689999999999523e-01 5.766449999999999632e-01 -2.805969999999999853e-01 -6.557100000000000428e-02 -1.116160000000000069e-01 1.180128000000000066e+00 -1.330878999999999923e+00 -2.135530000000000150e+00 -2.192578999999999834e+00 6.292839999999999545e-01 1.756618000000000013e+00 -7.437840000000000007e-01 -7.528529999999999944e-01 -3.259993999999999836e+00 -3.868599999999999817e-02 -3.754439000000000082e+00 -9.885230000000000405e-01 -1.306670000000000054e-01 -4.574700000000000294e-02 1.708469000000000015e+00 -1.379488999999999965e+00 1.674303000000000097e+00 1.715813000000000033e+00 1.445418000000000092e+00 1.387504999999999988e+00 -1.201724999999999932e+00 -6.558700000000000641e-02 -1.249325999999999937e+00 -3.234370999999999885e+00 -5.749140000000000361e-01 2.105363999999999791e+00 -8.149100000000000232e-01 -2.995963999999999849e+00 8.811229999999999896e-01 -5.993329000000000129e+00 -5.200096000000000274e+00 -3.655648999999999926e+00 9.527259999999999618e-01 9.141899999999999471e-01 1.076192000000000037e+00 -4.493659999999999877e-01 1.594754000000000005e+00 5.385299999999999809e-02 -7.412210000000000187e-01 4.544686999999999699e+00 7.724269999999999747e-01 1.701797999999999922e+00 -1.379940000000000055e-01 6.024129999999999763e-01 -9.143489999999999673e-01 2.378029999999999866e-01 -1.357890000000000041e+00 -6.205999999999999711e-02 -2.563791000000000153e+00 1.813152000000000097e+00 -9.739119999999999999e-01 9.847899999999999709e-02 8.458590000000000275e-01
6.089229999999999920e-01 -3.570289999999999853e-01 -2.745199999999999863e-01 -1.492277999999999993e+00 -2.749372000000000149e+00 1.286604999999999999e+00 -6.237160000000000482e-01 -6.716609999999999525e-01 -1.922641000000000044e+00 -1.879739999999999966e+00 -1.152500000000000052e-01 1.785144999999999982e+00 5.893059999999999965e-01 -8.905870000000000175e-01 -1.282958999999999961e+00 1.045973999999999959e+00 -1.060008000000000061e+00 -1.293228000000000044e+00 -2.176588000000000189e+00 -2.121758999999999951e+00 -7.429660000000000153e-01 3.870868000000000198e+00 -4.049084999999999823e+00 -1.349345000000000017e+00 7.495610000000000328e-01 9.011869999999999603e-01 1.134208000000000105e+00 9.828980000000000494e-01 9.705570000000000030e-01 1.219100000000000072e+00 2.072376999999999914e+00 5.376490000000000435e-01 7.167670000000000430e-01 -2.366413999999999795e+00 -3.020459999999999923e+00 -1.202560999999999991e+00 7.303399999999999892e-01 5.543050000000000477e-01 -3.571552000000000060e+00 6.529580000000000384e-01 -2.586339999999999750e-01 7.970899999999999652e-01 -2.359220999999999790e+00 -5.307539999999999480e-01 3.944020000000000081e+00 -1.162752999999999926e+00 -2.046234999999999804e+00 6.300820000000000309e-01 1.011978000000000044e+00 -1.127132000000000023e+00 -1.295867000000000102e+00 -1.780365999999999893e+00 2.165817000000000103e+00 -1.535789000000000071e+00 2.685969999999999747e-01 6.464029999999999498e-01 -2.044866999999999990e+00 2.702240000000000197e-01 4.182093000000000060e+00 -2.025409999999999988e-01 -6.392700000000000049e-01 -1.886290000000000022e+00 -7.308900000000000119e-02 2.791237999999999886e+00 2.287948999999999788e+00 1.547722000000000042e+00 -1.639612000000000069e+00 2.449790999999999830e+00 -9.551359999999999850e-01 -4.359141000000000155e+00 2.905778999999999890e+00 5.138660999999999923e+00 3.962317000000000089e+00 2.058631000000000100e+00 2.247036000000000033e+00 -1.471359000000000083e+00 -3.512939999999999952e-01 -1.109483999999999915e+00 -1.486780000000000046e-01 -5.417939999999999978e-01 4.400359999999999827e-01 -9.500300000000000411e-01 1.760680000000000023e-01 -3.738859999999999961e-01 -2.752794000000000185e+00 -4.145229999999999748e-01 1.217977000000000087e+00 3.665491999999999972e+00 3.295180000000000220e+00 3.302700000000000080e-02 1.287063000000000068e+00 5.830180000000000362e-01 1.955041999999999947e+00 1.988729999999999942e-01 2.338360999999999912e+00 1.882999999999999952e-01 6.113570000000000393e-01 1.690622999999999987e+00 2.817439999999999944e-01 9.958259999999999890e-01 -1.515022000000000091e+00 -2.733199999999999866e-02 1.122503000000000029e+00 -1.556831000000000076e+00 -2.678260000000000085e-01 6.017647000000000190e+00 -4.605466999999999977e+00 -6.627372000000000263e+00 9.905779999999999585e-01 -8.237719999999999487e-01 -2.517536999999999914e+00 -6.424619999999999775e-01 6.665379999999999638e-01 -1.366629000000000094e+00 1.988795000000000091e+00 3.461183000000000121e+00 9.965760000000000174e-01 8.456700000000000328e-01 -1.155920000000000059e+00 -2.017109000000000041e+00 -4.274358000000000324e+00 2.234278000000000208e+00 9.696010000000000462e-01 2.660722999999999949e+00 -3.325131999999999977e+00 6.483550000000000146e-01 1.017026999999999903e+00 -2.935309999999999864e-01 -6.229489999999999750e-01 -1.584424999999999972e+00 -1.046664000000000039e+00 6.294349999999999667e-01 4.592180000000000151e-01 -2.040103000000000222e+00 -4.875840000000000174e-01 1.103330000000000005e-01 -1.821706999999999965e+00 -7.000450000000000284e-01 -1.485519999999999952e+00 1.257211999999999996e+00 2.982635000000000147e+00 -2.335090999999999806e+00 5.633400000000000213e-02 6.702470000000000372e-01 -2.728295999999999832e+00 -3.674179999999999779e+00 -2.029263999999999957e+00 1.442347999999999963e+00 1.662571999999999939e+00 9.000359999999999472e-01 -1.031875000000000098e+00 -1.591321999999999903e+00 -7.613100000000000422e-02 -5.085200000000000137e-02 3.871442000000000050e+00 9.236950000000000438e-01 -9.207140000000000324e-01 3.635663000000000089e+00 2.735902999999999974e+00 2.263933999999999891e+00 4.431979999999999809e-01 -8.937129999999999797e-01 9.336899999999999367e-02 1.667194999999999983e+00 -5.228890000000000482e-01 -2.532630000000000159e-01 1.643070000000000030e+00 1.384125000000000050e+00 -5.091130000000000377e-01 1.200396999999999936e+00 1.021989000000000036e+00 -1.460380000000000011e+00 -6.198799999999999866e-01 7.973770000000000024e-01 -8.407199999999999396e-02 2.756245999999999974e+00 3.255361999999999867e+00 3.548370000000000135e-01 7.235340000000000105e-01 -8.494789999999999841e-01 1.147821999999999898e+00 1.485430999999999946e+00 -4.565420000000000034e-01 -9.988759999999999861e-01 3.777225000000000055e+00 -8.463469999999999605e-01 2.500207000000000068e+00 -7.736119999999999663e-01 4.076110000000000011e-01 -1.877283000000000035e+00 1.563477999999999923e+00 -5.896519999999999539e-01 1.741905999999999954e+00 1.797129999999999894e+00 -8.846519999999999939e-01 -3.816550000000000220e-01 1.701761000000000079e+00 -3.907039999999999957e-01 -7.587340000000000195e-01 1.704606999999999983e+00 2.166622999999999966e+00 -1.221761000000000097e+00 2.501499999999999835e-01 9.519079999999999764e-01 3.513589999999999769e-01 -2.020830000000000126e-01 -1.100133999999999945e+00 1.053420000000000051e-01 -9.394059999999999633e-01 -1.175240000000000035e-01 3.951000000000000345e-02 -5.120179999999999731e-01 1.714064000000000032e+00 -3.792059999999999875e-01 -4.122540000000000093e-01 -7.455399999999999527e-02 -1.896984000000000004e+00 -1.169286000000000048e+00 6.164250000000000007e-01 -5.679579999999999629e-01 1.207958000000000087e+00 -3.393695000000000128e+00 1.263314000000000048e+00 7.739620000000000388e-01 6.257160000000000499e-01 3.662678000000000100e+00 -2.732831000000000010e+00 1.477619999999999933e+00 -4.673586000000000240e+00 -2.047193000000000040e+00 1.650852999999999904e+00 -1.315810000000000035e-01 -6.754679999999999573e-01 -2.586285000000000167e+00 -9.130139999999999922e-01 -4.020373000000000197e+00 3.125100000000000100e-02 -1.141437999999999953e+00 -2.354610000000000092e+00 -1.320443999999999951e+00 1.255833999999999895e+00 5.078470000000000484e-01 -1.707213000000000092e+00 4.946550000000000114e-01 -1.313792000000000071e+00 2.609142999999999990e+00 1.065835000000000088e+00 3.744390000000000107e+00 -2.919849999999999945e-01 6.739000000000000545e-02 -6.624069999999999681e-01 9.190800000000000081e-01 5.557299999999999462e-01 -1.003285999999999900e+00 -7.343920000000000448e-01 2.646994999999999987e+00 1.347439999999999971e+00 1.805919000000000052e+00 1.101528999999999980e+00 -2.885340000000000127e-01 1.318772000000000055e+00 -1.663850000000000051e+00 1.242275999999999936e+00 3.176820000000000199e-01 7.770299999999999985e-01 -3.009379999999999833e-01 -1.721135999999999999e+00 1.166979999999999906e+00 1.470251999999999892e+00 -3.891220000000000234e-01 -7.015109999999999957e-01 -7.094540000000000290e-01 -2.290732999999999908e+00 1.122052000000000049e+00 -8.829930000000000279e-01 -1.249751000000000056e+00 -2.839608999999999828e+00 -5.792296999999999585e+00 2.252900000000000041e-02 -1.823566000000000020e+00 -2.291396000000000210e+00 -1.343429999999999902e-01 -1.666326999999999892e+00 -2.505499999999999949e-01 -5.975909999999999833e-01
1.168466000000000005e+00 -7.224770000000000358e-01 1.150001000000000051e+00 2.794684999999999864e+00 -1.016172000000000075e+00 2.162631000000000192e+00 1.903749999999999887e-01 -1.204684000000000088e+00 -1.246639999999999970e-01 4.513119999999999910e-01 1.720293999999999990e+00 -7.267230000000000079e-01 3.375230000000000175e-01 3.912749999999999839e-01 7.557999999999999441e-02 -2.233829999999999982e-01 -8.798540000000000250e-01 -1.717408999999999963e+00 2.663900000000000157e-01 4.048840000000000217e-01 2.634447000000000205e+00 -1.774640999999999913e+00 -1.017187999999999981e+00 -3.148429999999999840e-01 5.421070000000000055e-01 -1.140897999999999968e+00 4.586919999999999886e-01 -8.106900000000000217e-02 -2.980650000000000244e-01 -2.056341000000000196e+00 -1.262529999999999930e+00 -1.213405999999999985e+00 -1.060008000000000061e+00 -1.397634999999999961e+00 -2.811279999999999890e-01 -1.351890000000000036e+00 1.421945000000000014e+00 5.093849999999999767e-01 1.296537999999999968e+00 2.945459999999999745e-01 -1.132319999999999993e-01 -3.755580000000000029e-01 4.772609999999999908e-01 -2.666265999999999803e+00 6.254049999999999887e-01 -7.679800000000000515e-02 -1.493281999999999998e+00 7.780660000000000354e-01 -1.016656000000000004e+00 2.173930000000000029e-01 -1.068999000000000033e+00 1.866789999999999949e+00 1.473759000000000041e+00 -1.982899999999999940e-01 1.228526999999999925e+00 9.078770000000000451e-01 -1.806075000000000097e+00 -1.259328999999999921e+00 4.113339999999999774e-01 -1.800660000000000038e-01 -6.370010000000000394e-01 3.012614999999999821e+00 -1.161817000000000100e+00 -1.268696999999999964e+00 2.783652000000000015e+00 1.597054999999999891e+00 -1.509560999999999931e+00 1.278199999999999996e-02 -5.381369999999999765e-01 1.385639999999999983e+00 6.263189999999999591e-01 1.056826000000000043e+00 -1.920153999999999916e+00 5.885920000000000041e-01 4.263239999999999807e-01 2.836800000000000085e-02 3.168290000000000273e-01 -2.720260000000000122e+00 -2.387940000000000063e-01 1.704501999999999962e+00 3.507365000000000066e+00 -1.549336000000000046e+00 2.014810999999999908e+00 9.441800000000000193e-01 -9.829309999999999992e-01 4.871519999999999739e-01 -2.944442000000000004e+00 8.664600000000000080e-02 1.009376999999999969e+00 -1.238700000000000044e-02 2.403999999999999887e-03 2.159718999999999944e+00 -3.506790000000000185e-01 1.089690999999999965e+00 -1.253019999999999967e-01 -1.410210000000000075e-01 1.249719000000000024e+00 -1.153959999999999986e-01 9.364440000000000541e-01 4.571399999999999769e-02 -2.342627999999999933e+00 -5.682819999999999538e-01 -4.948719999999999786e-01 6.440000000000000169e-01 -1.367161999999999988e+00 2.781540000000000123e-01 -1.950679999999999914e-01 1.217395000000000005e+00 -7.231429999999999803e-01 9.483439999999999648e-01 -5.700380000000000447e-01 1.985813999999999968e+00 1.455994000000000010e+00 5.475400000000000267e-01 1.800248000000000070e+00 3.053460999999999981e+00 6.157850000000000268e-01 2.590390000000000192e-01 -3.577649999999999997e-01 -1.488180000000000058e-01 4.964500000000000163e-02 -1.538219000000000003e+00 1.669596000000000080e+00 7.295110000000000205e-01 -4.096350000000000269e-01 -2.491889999999999938e-01 -1.300694000000000017e+00 -6.675200000000000577e-02 7.492170000000000218e-01 6.552489999999999704e-01 -9.206959999999999589e-01 -4.120079999999999854e-01 -1.081609999999999933e-01 -2.407229999999999925e-01 -4.945519999999999916e-01 1.614300000000000110e-02 -2.922890000000000210e-01 -9.739599999999999647e-02 9.603429999999999467e-01 -6.508019999999999916e-01 -1.492640000000000078e-01 6.452940000000000342e-01 1.638835999999999959e+00 7.171619999999999662e-01 2.368332999999999799e+00 9.364190000000000014e-01 -2.305130999999999819e+00 5.499829999999999997e-01 8.886199999999999655e-01 1.843339999999999979e+00 -1.760339999999999960e-01 -6.673139999999999628e-01 -1.173160999999999898e+00 3.112401000000000195e+00 1.293009999999999993e-01 5.383799999999999697e-01 -4.712520000000000042e-01 4.135090000000000154e-01 -1.346181999999999990e+00 -1.551517000000000035e+00 1.615299999999999958e+00 2.480183999999999944e+00 6.668300000000000616e-02 2.162745999999999835e+00 2.421860000000000124e-01 1.593504000000000032e+00 -2.028249999999999886e+00 1.369547999999999988e+00 7.053600000000000148e-02 -1.438735000000000097e+00 -1.269571999999999923e+00 8.115940000000000376e-01 1.622838000000000003e+00 7.139360000000000150e-01 4.534799999999999942e-01 -5.655280000000000307e-01 -1.134144000000000041e+00 -1.650476000000000054e+00 4.291150000000000242e-01 4.338399999999999895e-02 -2.509000000000000119e-01 3.083130000000000037e-01 -3.551639999999999797e-01 -1.083202999999999916e+00 5.423750000000000515e-01 1.253868999999999900e+00 1.308929999999999927e+00 2.012944000000000067e+00 2.546530000000000182e+00 -6.407979999999999787e-01 -1.041916000000000064e+00 -7.640369999999999662e-01 1.438309000000000060e+00 -5.255200000000000149e-02 -8.316219999999999724e-01 -1.572972999999999955e+00 -4.042049999999999810e-01 6.607560000000000100e-01 -2.115635999999999850e+00 -1.574057999999999957e+00 -1.226650999999999936e+00 -2.058600000000000013e-02 5.831939999999999902e-01 -1.710089999999999943e-01 3.614580000000000015e-01 -3.031432000000000127e+00 1.121394000000000002e+00 -1.328540999999999972e+00 1.082209999999999894e+00 3.854369999999999741e-01 -2.024791000000000007e+00 7.374319999999999764e-01 1.301322000000000090e+00 6.994340000000000002e-01 1.364899999999999967e-02 -3.806519999999999904e-01 2.543420000000000125e-01 -9.359599999999999864e-02 1.301959000000000088e+00 4.066440000000000055e-01 -2.035800000000000110e-01 6.342600000000000460e-01 1.195508999999999933e+00 -3.564869999999999983e-01 -7.728599999999999914e-01 -3.800145999999999802e+00 -2.531737999999999822e+00 -7.365159999999999485e-01 -1.053506999999999971e+00 5.929200000000000026e-01 -6.901129999999999765e-01 6.938569999999999460e-01 -4.332679999999999865e-01 -2.385170000000000068e-01 -2.419519000000000197e+00 -3.804529999999999856e-01 -1.560326000000000102e+00 7.530699999999999894e-02 4.927200000000000329e-02 -1.909349999999999936e-01 -1.164042999999999939e+00 -1.342448000000000086e+00 6.016780000000000461e-01 1.090991999999999962e+00 1.317119999999999957e-01 -2.066500000000000004e+00 9.158749999999999947e-01 1.948293999999999970e+00 1.681219999999999937e+00 9.376659999999999995e-01 -6.010940000000000172e-01 -1.506790000000000074e-01 2.733030000000000181e-01 -5.568170000000000064e-01 -7.002389999999999448e-01 6.627049999999999885e-01 -2.493219999999999881e-01 -1.213206000000000007e+00 -1.001528999999999892e+00 -1.549636000000000013e+00 1.488410000000000011e-01 -2.193270000000000053e+00 -1.995969999999999966e-01 -5.292700000000000182e-01 3.822820000000000107e-01 6.174969999999999626e-01 5.720950000000000202e-01 1.356233000000000022e+00 -9.684930000000000483e-01 2.083317000000000085e+00 -3.787199000000000204e+00 -2.419576000000000171e+00 -1.326437000000000088e+00 2.050999999999999872e-03 -2.241524000000000072e+00 -5.017690000000000206e-01 1.931545999999999985e+00 -1.090743999999999936e+00 -8.982390000000000096e-01 2.094530000000000003e-01 -6.598299999999999998e-02 5.243189999999999795e-01 6.013429999999999609e-01 7.942899999999999960e-02 2.250449999999999950e-01
-1.019510000000000000e-01 -9.076429999999999776e-01 -2.387299999999999978e-01 4.837899999999999839e-02 -7.563200000000000478e-02 5.985690000000000177e-01 1.445963000000000109e+00 1.831840000000000135e-01 1.542300000000000004e+00 2.909600000000000034e-02 -1.862506999999999913e+00 -1.081301000000000068e+00 1.085601000000000038e+00 -5.439089999999999758e-01 1.908136999999999972e+00 -9.940419999999999812e-01 5.271529999999999827e-01 2.725417000000000201e+00 -8.460600000000000065e-02 -5.808149999999999702e-01 5.388100000000000112e-01 -5.575989999999999558e-01 5.228249999999999842e-01 -2.729179999999999939e-01 -2.636930000000000107e-01 8.533200000000000507e-02 -3.169890000000000208e-01 6.347450000000000037e-01 -8.439830000000000387e-01 4.273150000000000004e-01 1.174649000000000054e+00 -1.498984000000000094e+00 -1.260410999999999948e+00 9.868350000000000177e-01 5.156549999999999745e-01 5.029019999999999602e-01 -1.706299999999999831e-02 4.261750000000000260e-01 -1.493244000000000016e+00 1.353199999999999958e-01 -3.838999999999999965e-03 5.971680000000000321e-01 -9.903300000000000436e-01 2.459208999999999978e+00 -6.193779999999999841e-01 -5.968670000000000364e-01 9.210799999999999543e-02 8.490699999999999636e-02 -1.442204000000000041e+00 1.073930999999999969e+00 -2.567889999999999895e-01 1.536909999999999998e+00 8.805960000000000454e-01 1.704185000000000061e+00 3.918079999999999896e-01 -8.575920000000000210e-01 -1.682083999999999913e+00 -1.060680999999999985e+00 1.174361999999999906e+00 2.377229999999999899e-01 1.009990000000000054e-01 1.356967999999999952e+00 -2.820039999999999769e-01 1.194758999999999904e+00 2.066959999999999908e-01 -2.969930000000000070e-01 -3.490880000000000094e-01 -6.034800000000000164e-01 1.687308000000000030e+00 2.422198999999999991e+00 1.291976999999999931e+00 -5.187400000000000344e-02 -6.122450000000000392e-01 1.397299999999999931e-01 -7.786380000000000523e-01 -9.011999999999999178e-03 -1.682779000000000025e+00 -1.074119999999999936e-01 -1.561295000000000099e+00 7.173340000000000272e-01 3.274400000000000227e-02 -1.369347000000000092e+00 -4.453540000000000276e-01 8.807700000000000251e-02 1.290367999999999959e+00 9.210679999999999978e-01 -2.189344999999999875e+00 1.344789999999999930e+00 -7.562210000000000321e-01 -5.076549999999999674e-01 -7.761040000000000161e-01 -2.973415999999999837e+00 1.054229000000000083e+00 2.438114000000000114e+00 2.535180000000000211e-01 6.535670000000000091e-01 -6.992960000000000287e-01 7.029020000000000268e-01 4.385200000000000209e-01 4.637350000000000083e-01 -1.705443000000000042e+00 1.429996000000000045e+00 7.957610000000000516e-01 4.470870000000000122e-01 -2.294049999999999978e-01 3.385690000000000088e-01 -2.220910000000000106e-01 3.490090000000000137e-01 -6.686910000000000354e-01 6.585720000000000462e-01 4.875869999999999926e-01 -8.724600000000000133e-01 -2.469292999999999960e+00 8.299469999999999903e-01 2.429860000000000075e-01 3.206699999999999828e-02 -1.625409999999999910e-01 -1.056267000000000067e+00 1.347094999999999931e+00 -2.405770000000000131e-01 5.426389999999999825e-01 -1.319093000000000071e+00 -8.615180000000000060e-01 1.821139999999999981e-01 5.860030000000000516e-01 3.383789999999999853e-01 9.981020000000000447e-01 5.375860000000000083e-01 -1.630060000000000120e-01 4.028070000000000261e-01 -3.560260000000000091e-01 -1.070888999999999980e+00 6.803839999999999888e-01 4.582919999999999772e-01 -2.998998999999999970e+00 8.029129999999999878e-01 1.245074999999999932e+00 4.434870000000000201e-01 -9.800950000000000495e-01 -6.945970000000000200e-01 8.773090000000000055e-01 -1.939539999999999875e-01 1.785446000000000089e+00 -4.520899999999999919e-01 -2.812520000000000020e-01 -1.695405999999999969e+00 -6.875120000000000120e-01 -7.279520000000000435e-01 7.588510000000000533e-01 -7.596260000000000234e-01 4.016509999999999803e-01 6.622029999999999861e-01 -3.543279999999999763e-01 2.331169999999999909e-01 -9.822380000000000555e-01 4.831960000000000144e-01 -1.576100000000000001e-01 -4.546399999999999886e-01 2.865039999999999809e-01 -6.582820000000000338e-01 -1.241069999999999895e+00 6.361100000000000088e-02 9.799459999999999837e-01 5.344910000000000494e-01 -7.207050000000000400e-01 3.045359999999999734e-01 2.594639999999999724e-01 4.606609999999999872e-01 3.704669999999999908e-01 7.020239999999999814e-01 8.578670000000000462e-01 -8.880900000000000460e-01 8.517700000000000271e-02 -1.078556000000000070e+00 -2.171842999999999968e+00 -5.078949999999999854e-01 -4.493349999999999844e-01 2.236199999999999993e-02 -3.067829999999999724e-01 3.334999999999999857e-03 -1.957569999999999866e-01 5.202020000000000532e-01 -9.125500000000000278e-02 -1.954374000000000056e+00 1.866700000000000026e-01 -1.912047999999999970e+00 -9.198129999999999917e-01 7.517500000000000293e-01 -4.939299999999999941e-02 -1.318340000000000067e-01 -7.251399999999999513e-02 -1.626730000000000009e+00 3.576659999999999839e-01 -4.598840000000000150e-01 -1.010437999999999947e+00 1.382098000000000049e+00 -4.871400000000000036e-02 3.268840000000000079e-01 1.207538000000000000e+00 3.391469999999999763e-01 -5.294830000000000370e-01 -7.275000000000000216e-03 4.838419999999999943e-01 1.252140999999999948e+00 -3.114089999999999914e-01 -7.502130000000000187e-01 -2.979870000000000019e-01 3.971120000000000205e-01 -1.470619999999999983e-01 -2.145950000000000080e-01 -8.798240000000000505e-01 -2.349090000000000067e-01 -1.890959999999999863e-01 -2.495070000000000066e-01 -1.745029999999999915e-01 1.651499999999999843e-02 -7.561020000000000518e-01 4.428940000000000099e-01 -3.357970000000000121e-01 4.013499999999999707e-02 3.901600000000000207e-02 -2.392350000000000032e-01 5.267079999999999540e-01 -3.300919999999999965e-01 9.265199999999999825e-02 1.637707000000000024e+00 9.283569999999999878e-01 1.404401000000000010e+00 3.198940000000000117e-01 2.133480000000000099e-01 -7.702620000000000022e-01 -9.485289999999999555e-01 1.114839999999999998e-01 1.899721999999999911e+00 -1.136047999999999947e+00 -1.220050999999999997e+00 -3.400139999999999829e-01 3.299190000000000178e-01 5.668360000000000065e-01 -4.504949999999999788e-01 4.789880000000000249e-01 -1.033169000000000004e+00 -4.152649999999999952e-01 -1.491430000000000033e+00 -2.299430000000000085e-01 6.034009999999999652e-01 -7.770939999999999515e-01 -3.727480000000000238e-01 -5.818429999999999991e-01 6.655539999999999790e-01 -2.920599999999999863e-01 4.144099999999999867e-02 -2.081939999999999902e-01 6.354330000000000256e-01 1.298819999999999975e-01 -3.328079999999999927e-01 1.033355000000000024e+00 -9.342570000000000041e-01 -1.184693999999999914e+00 3.122130000000000183e-01 6.806910000000000460e-01 8.030000000000000679e-03 -4.813230000000000008e-01 4.101460000000000106e-01 -5.202489999999999615e-01 -6.505710000000000104e-01 4.458000000000000157e-03 -4.796150000000000135e-01 -5.645099999999999563e-01 7.265500000000000291e-01 3.894699999999999829e-01 9.036899999999999933e-01 4.834820000000000229e-01 1.926390000000000047e-01 -4.794880000000000253e-01 -8.168440000000000145e-01 -1.103479000000000099e+00 9.254679999999999573e-01 -1.968930000000000125e-01 6.198860000000000481e-01 1.033393999999999924e+00 1.603344000000000102e+00 1.153985000000000039e+00 7.523100000000000620e-02 1.258307000000000064e+00