1.464499999999999968e-01 2.438250000000000028e+00 3.018850000000000033e+00 1.015600000000000058e+01 2.785350000000000215e+00 7.775459999999999816e+00 -1.953999999999999834e-02 7.982680000000000220e+00 2.912980000000000125e+00 1.003196999999999939e+01 7.961229999999999585e+00 8.139570000000000860e+00 5.078899999999999970e+00 2.478289999999999882e+00 2.846220000000000194e+00 5.209950000000000081e+00 2.684330000000000105e+00 7.772439999999999571e+00 4.994659999999999656e+00 7.561090000000000089e+00 2.511620000000000186e+00 5.102159999999999584e+00 7.792720000000000091e+00 8.173980000000000246e+00 2.809820000000000206e+00 1.788999999999999965e-02 2.479610000000000092e+00 2.314540000000000042e+00 2.709699999999999886e-01 8.019529999999999603e+00 2.518639999999999990e+00 4.875300000000000189e+00 2.548830000000000151e+00 2.662900000000000045e+00 5.640349999999999753e+00 7.736110000000000042e+00 7.786690000000000111e+00 1.008430000000000071e+01 2.571549999999999780e+00 7.571069999999999744e+00 1.340000000000000080e-01 8.066380000000000550e+00 7.305519999999999570e+00 5.046820000000000306e+00 2.462089999999999890e+00 7.552830000000000155e+00 5.204509999999999970e+00 7.851790000000000269e+00 2.648350000000000204e+00 2.734789999999999832e+00 5.378709999999999880e+00 2.797890000000000210e+00 2.717400000000000038e+00 1.040038999999999980e+01 2.622069999999999901e+00 7.881870000000000154e+00 5.098060000000000258e+00 2.172489999999999810e+00 7.826290000000000191e+00 1.057469000000000037e+01 7.755790000000000184e+00 2.565640000000000143e+00 5.292419999999999902e+00 7.355710000000000193e+00 2.930190000000000072e+00 1.053519000000000005e+01 7.807210000000000427e+00 7.694650000000000212e+00 5.295250000000000234e+00 7.596759999999999735e+00 7.914349999999999774e+00 1.574000000000000052e-02 7.149999999999999412e-02 1.002004999999999946e+01 5.651220000000000354e+00 7.283000000000000584e-02 4.572800000000000198e-01 8.727000000000000035e-02 1.022889999999999944e+01 5.214570000000000149e+00 5.387970000000000148e+00 1.391999999999999904e-01 5.153940000000000410e+00 1.047649000000000008e+01 5.311499999999999666e+00 1.021879999999999988e+01 5.349129999999999718e+00 5.243960000000000399e+00 1.027410000000000068e+01 1.054608999999999952e+01 5.104700000000000237e+00 5.227520000000000167e+00 5.107990000000000030e+00 5.079419999999999824e+00 5.373300000000000409e+00 1.045688999999999957e+01 3.677249999999999908e+00 3.706409999999999982e+00 3.839760000000000062e+00 3.797239999999999949e+00 4.202139999999999986e+00 9.149190000000000822e+00 3.758919999999999817e+00 8.954349999999999810e+00 3.500669999999999948e+00 3.490019999999999900e+00 9.026379999999999626e+00 8.785180000000000433e+00 8.557460000000000733e+00 3.428230000000000111e+00 3.213999999999999968e+00 9.098280000000000811e+00 4.120440000000000325e+00 9.233040000000000802e+00 9.051740000000000563e+00 9.161329999999999529e+00 4.068970000000000198e+00 9.126079999999999970e+00 9.380639999999999645e+00 9.154370000000000118e+00 4.239819999999999922e+00 1.105690000000000062e+00 1.712120000000000086e+00 3.441289999999999960e+00 1.575620000000000021e+00 7.300939999999999763e+00 3.755469999999999864e+00 6.270900000000000141e+00 1.499840000000000062e+00 4.204819999999999780e+00 6.514990000000000059e+00 6.645170000000000243e+00 9.476649999999999352e+00 9.754699999999999482e-01 1.939810000000000034e+00 8.429610000000000269e+00 1.734059999999999935e+00 7.406279999999999752e+00 4.441580000000000084e+00 1.890320000000000000e+00 4.880950000000000344e+00 4.014470000000000205e+00 1.246660000000000101e+00 9.728690000000000282e+00 3.708829999999999849e+00 6.468060000000000365e+00 4.110070000000000334e+00 3.805289999999999839e+00 6.594619999999999926e+00 9.508729999999999905e+00 9.499449999999999505e+00 1.381189999999999918e+00 4.672670000000000101e+00 8.913710000000000022e+00 1.771230000000000082e+00 1.003692999999999991e+01 8.702560000000000073e+00 6.544279999999999653e+00 3.856590000000000185e+00 8.720319999999999183e+00 6.951299999999999812e+00 9.490539999999999310e+00 3.457359999999999989e+00 3.366680000000000117e+00 1.500569999999999959e+00 3.932020000000000071e+00 4.155780000000000030e+00 6.410949999999999704e+00 3.938540000000000152e+00 8.795159999999999201e+00 6.152499999999999636e-01 3.720260000000000122e+00 9.425560000000000827e+00 6.079010000000000247e+00 8.572499999999999787e+00 4.658000000000000362e+00 1.056059999999999999e+00 9.311640000000000583e+00 3.779450000000000198e+00 6.263530000000000264e+00 8.511440000000000339e+00 8.611679999999999779e+00 1.666069999999999940e+00 8.653859999999999886e+00 9.390029999999999433e+00 6.842439999999999856e+00 2.171250000000000124e+00 1.450460000000000083e+00 3.652890000000000192e+00 1.111920000000000019e+00 1.859310000000000018e+00 8.990080000000000737e+00 1.246510000000000007e+00 6.578380000000000116e+00 3.453629999999999978e+00 1.080060000000000020e+00 6.676239999999999952e+00 9.101449999999999818e+00 6.728030000000000399e+00 8.648599999999999621e-01 3.880279999999999951e+00 6.448459999999999859e+00 1.454499999999999904e+00 9.054520000000000124e+00 6.053689999999999571e+00 6.154080000000000439e+00 3.532129999999999992e+00 6.253739999999999633e+00 6.296499999999999986e+00 8.952349999999999142e+00 7.859099999999999975e-01 3.796730000000000160e+00 1.361739999999999950e+00 1.383059999999999956e+00 3.943940000000000001e+00 6.926720000000000432e+00 1.029230000000000089e+00 9.319060000000000343e+00 1.304270000000000040e+00 1.293520000000000003e+00 8.885659999999999670e+00 7.127320000000000100e+00 6.048049999999999926e+00 3.946190000000000087e+00 1.498769999999999936e+00 6.542379999999999640e+00 3.682580000000000187e+00 6.497729999999999784e+00 6.033240000000000158e+00 8.808650000000000091e+00 1.329460000000000086e+00 6.232370000000000410e+00 8.955790000000000362e+00 6.880919999999999703e+00 8.033900000000000485e-01 3.901860000000000106e+00 4.260580000000000034e+00 1.613429999999999920e+00 4.207620000000000360e+00 9.522859999999999658e+00 1.213929999999999954e+00 9.206730000000000302e+00 4.114889999999999937e+00 1.214569999999999927e+00 9.418039999999999523e+00 9.575979999999999492e+00 6.350399999999999601e+00 3.677989999999999871e+00 4.044730000000000381e+00 6.360319999999999752e+00 4.143530000000000157e+00 9.130169999999999675e+00 6.499579999999999913e+00 8.654550000000000409e+00 4.055250000000000021e+00 6.266659999999999897e+00 9.020200000000000884e+00 9.433249999999999247e+00 1.831099999999999950e+00 1.281779999999999919e+00 7.860000000000000320e-01 1.016590000000000105e+00 1.295600000000000085e+00 6.459299999999999820e+00 8.580999999999999739e-01 6.681189999999999962e+00 1.100680000000000103e+00 1.691820000000000102e+00 6.499780000000000335e+00 6.176759999999999806e+00 6.625949999999999562e+00 1.206919999999999993e+00 1.089339999999999975e+00 6.236449999999999605e+00 1.187990000000000101e+00 6.415110000000000312e+00 6.460580000000000211e+00 6.401880000000000237e+00 1.001009999999999955e+00 6.757229999999999848e+00 6.307999999999999829e+00 6.141469999999999985e+00
1.858299999999999952e-01 2.423480000000000079e+00 2.639730000000000132e+00 1.003744000000000014e+01 2.616150000000000198e+00 7.951459999999999972e+00 1.416600000000000081e-01 8.030630000000000379e+00 2.853190000000000115e+00 4.812500000000000111e-01 7.684510000000000396e+00 8.433350000000000790e+00 5.255989999999999718e+00 2.857359999999999900e+00 2.780050000000000132e+00 5.273450000000000415e+00 2.760899999999999910e+00 7.967869999999999564e+00 4.966680000000000206e+00 8.228790000000000049e+00 2.931319999999999926e+00 4.820529999999999760e+00 7.724199999999999733e+00 7.920230000000000103e+00 3.031930000000000014e+00 3.226499999999999924e-01 2.527540000000000120e+00 2.700530000000000097e+00 3.028500000000000081e-01 8.118169999999999220e+00 2.435029999999999806e+00 5.394319999999999560e+00 2.689529999999999976e+00 2.294680000000000053e+00 4.881499999999999950e+00 7.916540000000000354e+00 7.989810000000000301e+00 5.521800000000000042e-01 2.634360000000000035e+00 7.707049999999999734e+00 9.991960000000000619e+00 8.395319999999999894e+00 7.457010000000000360e+00 5.240540000000000198e+00 2.266890000000000072e+00 7.469960000000000377e+00 5.358570000000000277e+00 8.303470000000000795e+00 2.384430000000000049e+00 2.664530000000000065e+00 5.175939999999999763e+00 2.650790000000000202e+00 2.543210000000000193e+00 6.596000000000000474e-02 2.495610000000000106e+00 7.969579999999999664e+00 5.455549999999999677e+00 2.814229999999999787e+00 8.026289999999999480e+00 1.055072999999999972e+01 7.803420000000000023e+00 2.997539999999999871e+00 5.412340000000000373e+00 7.922419999999999796e+00 2.456770000000000120e+00 1.065333000000000041e+01 7.303239999999999732e+00 7.868299999999999628e+00 5.450549999999999784e+00 8.371359999999999246e+00 7.926940000000000097e+00 9.141299999999999981e-01 1.034951000000000043e+01 1.028381000000000078e+01 5.712589999999999613e+00 1.875799999999999967e-01 2.440799999999999914e-01 1.053022999999999954e+01 1.013986000000000054e+01 5.255729999999999791e+00 5.254330000000000389e+00 1.745099999999999985e-01 5.034959999999999880e+00 9.128000000000000003e-02 5.249039999999999928e+00 6.443000000000000116e-02 5.705219999999999736e+00 5.645859999999999879e+00 1.201699999999999990e-01 1.067042999999999964e+01 4.942009999999999792e+00 5.336260000000000225e+00 5.169859999999999900e+00 4.867239999999999789e+00 5.510530000000000150e+00 3.898000000000000076e-02 3.334260000000000002e+00 3.757919999999999927e+00 3.505419999999999980e+00 3.730830000000000091e+00 3.897679999999999811e+00 9.358119999999999550e+00 2.097960000000000047e+00 9.102280000000000371e+00 1.343869999999999898e+00 3.823620000000000019e+00 8.970029999999999504e+00 6.321600000000000108e+00 8.827949999999999520e+00 3.994959999999999845e+00 4.026869999999999727e+00 9.119519999999999627e+00 3.822080000000000144e+00 9.193759999999999266e+00 8.403199999999999559e-01 9.593870000000000786e+00 3.916529999999999845e+00 9.543499999999999872e+00 9.489720000000000155e+00 8.437879999999999825e+00 4.103659999999999641e+00 1.884430000000000049e+00 1.476469999999999949e+00 4.027689999999999770e+00 1.386260000000000048e+00 7.019079999999999764e+00 4.169719999999999871e+00 7.232339999999999769e+00 1.121979999999999977e+00 3.307910000000000128e+00 6.513390000000000235e+00 6.721090000000000231e+00 9.374309999999999476e+00 1.141059999999999963e+00 1.421359999999999957e+00 9.254250000000000753e+00 1.234199999999999964e+00 6.890100000000000335e+00 3.930330000000000101e+00 1.446269999999999945e+00 4.235289999999999999e+00 4.019359999999999822e+00 1.616640000000000077e+00 9.645960000000000534e+00 3.750030000000000197e+00 6.592329999999999579e+00 3.887399999999999967e+00 1.857089999999999907e+00 6.461590000000000167e+00 9.435460000000000846e+00 9.359809999999999519e+00 1.120649999999999924e+00 3.958070000000000199e+00 9.254860000000000753e+00 1.394490000000000007e+00 9.568020000000000636e+00 9.450100000000000167e-01 6.639630000000000365e+00 4.060279999999999667e+00 9.616429999999999367e+00 6.806079999999999686e+00 9.747730000000000672e+00 3.369489999999999874e+00 4.673709999999999809e+00 9.069899999999999629e-01 4.010839999999999961e+00 4.314070000000000071e+00 6.415429999999999744e+00 4.270539999999999559e+00 9.082420000000000826e+00 9.216820000000000235e+00 4.933609999999999829e+00 9.686059999999999448e+00 1.605760000000000076e+00 8.925039999999999196e+00 3.973710000000000075e+00 1.094780000000000086e+00 9.096090000000000231e+00 3.945910000000000029e+00 6.607370000000000410e+00 4.200000000000000174e-04 8.959540000000000504e+00 5.840499999999999581e-01 8.656290000000000262e+00 9.232929999999999637e+00 5.884479999999999933e+00 1.532839999999999980e+00 1.506469999999999976e+00 3.609300000000000175e+00 1.413129999999999997e+00 1.331890000000000018e+00 9.344870000000000232e+00 4.700799999999999979e-01 5.973939999999999806e+00 7.203100000000000058e+00 8.093519999999999825e+00 6.760629999999999917e+00 7.197610000000000063e+00 6.934000000000000163e+00 1.592179999999999929e+00 3.971330000000000027e+00 6.724940000000000140e+00 1.557549999999999990e+00 9.384359999999999147e+00 6.711359999999999992e+00 6.962089999999999890e+00 3.320710000000000051e+00 5.664579999999999949e+00 5.998109999999999609e+00 9.064249999999999474e+00 9.971799999999999553e-01 3.855280000000000040e+00 1.276359999999999939e+00 1.561129999999999907e+00 3.463499999999999801e+00 6.887129999999999974e+00 1.018790000000000084e+00 6.441370000000000040e+00 1.476569999999999938e+00 9.705899999999999528e-01 8.700369999999999493e+00 6.654289999999999594e+00 5.669380000000000308e+00 4.355159999999999698e+00 1.668719999999999981e+00 6.762699999999999712e+00 4.282460000000000377e+00 6.968759999999999621e+00 8.730409999999999116e+00 9.005069999999999908e+00 2.503960000000000186e+00 6.482470000000000176e+00 9.228559999999999874e+00 6.887739999999999974e+00 1.326060000000000016e+00 4.188600000000000101e+00 4.438830000000000275e+00 1.330130000000000035e+00 3.903540000000000010e+00 9.332209999999999894e+00 3.323770000000000113e+00 9.064370000000000260e+00 3.846989999999999910e+00 1.819120000000000070e+00 9.230919999999999348e+00 9.323130000000000805e+00 6.229790000000000383e+00 4.222780000000000200e+00 4.397920000000000051e+00 6.455910000000000259e+00 3.936539999999999928e+00 9.473649999999999238e+00 5.981819999999999915e+00 9.497350000000000847e+00 4.163599999999999746e+00 7.416150000000000020e+00 9.412269999999999470e+00 1.040423000000000009e+01 1.059730000000000061e+00 1.406619999999999981e+00 1.054589999999999916e+00 1.461270000000000069e+00 1.025090000000000057e+00 6.633460000000000356e+00 9.136150000000000659e+00 6.587500000000000355e+00 2.326680000000000081e+00 8.872849999999999682e+00 6.891099999999999781e+00 4.801540000000000141e+00 6.653500000000000192e+00 1.641420000000000101e+00 1.354889999999999928e+00 6.431239999999999846e+00 1.746550000000000047e+00 6.429039999999999644e+00 7.248370000000000424e+00 6.388770000000000060e+00 6.310099999999999598e-01 5.838219999999999743e+00 6.705869999999999997e+00 6.177920000000000300e+00
1.002130999999999972e+01 2.383160000000000167e+00 2.312489999999999934e+00 1.019414000000000087e+01 2.506629999999999914e+00 7.599350000000000271e+00 1.015234000000000059e+01 7.943109999999999893e+00 3.133059999999999956e+00 9.931950000000000500e+00 7.784889999999999866e+00 8.595069999999999766e+00 5.253409999999999691e+00 2.658360000000000056e+00 2.256870000000000154e+00 5.092579999999999885e+00 2.550899999999999945e+00 7.506560000000000343e+00 4.912840000000000096e+00 7.830499999999999794e+00 3.081729999999999858e+00 5.005160000000000053e+00 7.740029999999999966e+00 8.552450000000000330e+00 2.468189999999999884e+00 2.718200000000000061e-01 2.016370000000000218e+00 2.468589999999999840e+00 2.637700000000000045e-01 7.336159999999999570e+00 2.212540000000000173e+00 5.330239999999999867e+00 3.128600000000000048e+00 2.203170000000000073e+00 5.190710000000000157e+00 8.373440000000000438e+00 7.485520000000000174e+00 1.031694000000000067e+01 2.037450000000000205e+00 7.645139999999999603e+00 3.489399999999999724e-01 7.584299999999999820e+00 7.644260000000000055e+00 5.667919999999999625e+00 3.164629999999999832e+00 7.690109999999999779e+00 5.344179999999999708e+00 8.683799999999999741e+00 2.615079999999999849e+00 2.619019999999999904e+00 4.691329999999999778e+00 2.778319999999999901e+00 2.506219999999999892e+00 1.014568000000000048e+01 2.886839999999999851e+00 7.616839999999999833e+00 5.822160000000000224e+00 2.768130000000000202e+00 7.514560000000000350e+00 5.313400000000000345e-01 7.562969999999999970e+00 2.889130000000000198e+00 4.645410000000000039e+00 8.098610000000000753e+00 2.446180000000000021e+00 1.028947999999999929e+01 8.008129999999999526e+00 8.008369999999999322e+00 5.902790000000000425e+00 7.950929999999999609e+00 7.666030000000000122e+00 4.543499999999999761e-01 3.326700000000000212e-01 1.765400000000000025e-01 4.842229999999999812e+00 3.877900000000000236e-01 6.327000000000000679e-02 1.004776999999999987e+01 1.021083999999999925e+01 5.143469999999999764e+00 5.858620000000000161e+00 1.388399999999999912e-01 5.313320000000000043e+00 3.420599999999999752e-01 5.246179999999999843e+00 2.420400000000000051e-01 4.983259999999999579e+00 5.479650000000000354e+00 2.279599999999999960e-01 1.013457999999999970e+01 5.308440000000000047e+00 5.414229999999999876e+00 5.860619999999999941e+00 5.344500000000000028e+00 5.465379999999999683e+00 4.265399999999999747e-01 3.586190000000000211e+00 3.419029999999999792e+00 3.242859999999999854e+00 3.745340000000000114e+00 3.709680000000000089e+00 8.629089999999999705e+00 4.506850000000000023e+00 8.731180000000000163e+00 4.793770000000000309e+00 4.462159999999999904e+00 8.752710000000000434e+00 1.024577999999999989e+01 9.122019999999999129e+00 3.378470000000000084e+00 5.843499999999999694e+00 9.033260000000000289e+00 3.640960000000000196e+00 8.776030000000000442e+00 9.458270000000000621e+00 9.018530000000000157e+00 4.928309999999999746e+00 9.490339999999999776e+00 8.658830000000000027e+00 1.022977999999999987e+01 3.881209999999999827e+00 1.037390000000000034e+00 8.261500000000000510e-01 3.876679999999999904e+00 1.086030000000000051e+00 6.351460000000000328e+00 3.606300000000000061e+00 6.190299999999999692e+00 1.869080000000000075e+00 3.980410000000000004e+00 6.500619999999999621e+00 7.117539999999999978e+00 9.042949999999999378e+00 1.309330000000000105e+00 9.628200000000000092e-01 9.557280000000000442e+00 8.628700000000000259e-01 6.448629999999999640e+00 3.581399999999999917e+00 1.006129999999999969e+00 3.871020000000000127e+00 3.915589999999999904e+00 1.210120000000000084e+00 8.755530000000000257e+00 3.940310000000000201e+00 6.232029999999999959e+00 4.634290000000000020e+00 3.731700000000000017e+00 6.297930000000000028e+00 9.729620000000000601e+00 9.036229999999999762e+00 1.199249999999999927e+00 3.538800000000000168e+00 9.077540000000000830e+00 8.094700000000000228e-01 8.996919999999999362e+00 9.159829999999999472e+00 6.476090000000000124e+00 4.557699999999999640e+00 9.052699999999999747e+00 6.248499999999999943e+00 1.708679999999999977e+00 4.229879999999999640e+00 3.584309999999999885e+00 7.171300000000000452e-01 4.166150000000000020e+00 3.576830000000000176e+00 5.864029999999999632e+00 3.378070000000000128e+00 8.761639999999999873e+00 2.196930000000000049e+00 3.579390000000000072e+00 8.914260000000000517e+00 7.456240000000000201e+00 8.392839999999999634e+00 3.781390000000000029e+00 3.171510000000000051e+00 9.298500000000000654e+00 6.223290000000000433e+00 7.409239999999999604e+00 8.559150000000000702e+00 8.865149999999999864e+00 2.288899999999999935e+00 8.316620000000000346e+00 8.628479999999999706e+00 7.869369999999999976e+00 1.235449999999999937e+00 1.514259999999999939e+00 3.344749999999999890e+00 1.257579999999999920e+00 1.623529999999999918e+00 8.537330000000000751e+00 1.403010000000000090e+00 6.859189999999999898e+00 4.111130000000000173e+00 1.013200000000000101e+00 6.694160000000000110e+00 9.864219999999999544e+00 6.409029999999999561e+00 1.572680000000000078e+00 3.582720000000000127e+00 6.636809999999999654e+00 1.814100000000000046e+00 8.914009999999999323e+00 6.811139999999999972e+00 7.294330000000000425e+00 4.079419999999999824e+00 6.486170000000000435e+00 6.971420000000000172e+00 9.824970000000000425e+00 7.731099999999999639e-01 4.056720000000000326e+00 1.838470000000000049e+00 1.139380000000000059e+00 3.990489999999999871e+00 7.219689999999999941e+00 1.667810000000000015e+00 9.445499999999999119e+00 4.561600000000000099e-01 1.608230000000000048e+00 9.307880000000000820e+00 5.958400000000000141e+00 6.164939999999999642e+00 4.344890000000000363e+00 2.349330000000000140e+00 6.222450000000000259e+00 4.249990000000000379e+00 7.349980000000000402e+00 6.883110000000000284e+00 9.232590000000000074e+00 3.497799999999999798e-01 7.029490000000000016e+00 9.838990000000000791e+00 5.713239999999999874e+00 1.296180000000000110e+00 4.375740000000000407e+00 4.605730000000000324e+00 1.507609999999999895e+00 4.159489999999999910e+00 9.883330000000000837e+00 1.078959999999999919e+00 9.459260000000000446e+00 3.143909999999999982e+00 9.567400000000000349e-01 9.435560000000000613e+00 8.519769999999999399e+00 6.609580000000000233e+00 4.518570000000000420e+00 4.886350000000000193e+00 6.752679999999999794e+00 4.215060000000000251e+00 1.020358000000000054e+01 5.777619999999999756e+00 9.501979999999999649e+00 2.758300000000000196e+00 5.751210000000000377e+00 9.775159999999999627e+00 8.267680000000000362e+00 1.180620000000000003e+00 1.639550000000000063e+00 8.284399999999999542e-01 1.330899999999999972e+00 1.621399999999999952e+00 6.128630000000000244e+00 1.211349999999999927e+00 6.895970000000000155e+00 1.911040000000000072e+00 1.518119999999999914e+00 6.402890000000000192e+00 6.683209999999999873e+00 6.463449999999999918e+00 1.446900000000000075e+00 8.955400000000000027e-01 6.678860000000000241e+00 1.756539999999999990e+00 6.289460000000000051e+00 6.488970000000000127e+00 6.722850000000000215e+00 1.719940000000000024e+00 6.636440000000000339e+00 6.736150000000000304e+00 6.945140000000000313e+00
1.005420999999999943e+01 2.649519999999999875e+00 2.340590000000000170e+00 5.335600000000000342e-01 2.665900000000000158e+00 8.519600000000000506e+00 1.020851000000000042e+01 7.960119999999999862e+00 3.004020000000000135e+00 6.013999999999999901e-02 8.131980000000000430e+00 8.047610000000000596e+00 5.041760000000000019e+00 3.004259999999999931e+00 2.407410000000000050e+00 5.366030000000000300e+00 2.762729999999999908e+00 8.032329999999999970e+00 5.268480000000000274e+00 7.712679999999999758e+00 2.962750000000000217e+00 5.108460000000000001e+00 8.145810000000000883e+00 8.345599999999999241e+00 2.534559999999999924e+00 1.705599999999999894e-01 3.062930000000000152e+00 2.634910000000000085e+00 3.074999999999999956e-02 8.600529999999999120e+00 1.913030000000000008e+00 5.206199999999999939e+00 2.341040000000000010e+00 2.656130000000000102e+00 5.398480000000000167e+00 7.899840000000000195e+00 7.588090000000000224e+00 2.945499999999999785e-01 2.952780000000000182e+00 8.301899999999999835e+00 1.671499999999999930e-01 7.968650000000000233e+00 7.976919999999999789e+00 5.214780000000000193e+00 2.754840000000000177e+00 7.852739999999999831e+00 5.414930000000000021e+00 7.907589999999999897e+00 2.842210000000000125e+00 2.732870000000000132e+00 5.265460000000000029e+00 2.848240000000000105e+00 3.201229999999999798e+00 2.944000000000000089e-02 2.461869999999999781e+00 7.815620000000000012e+00 5.161100000000000243e+00 2.443509999999999849e+00 8.124390000000000001e+00 4.174499999999999877e-01 7.871839999999999726e+00 2.864889999999999937e+00 5.367300000000000182e+00 8.043359999999999843e+00 2.919890000000000096e+00 1.059925999999999924e+01 8.020479999999999166e+00 7.977170000000000094e+00 5.545609999999999928e+00 7.706730000000000302e+00 7.874179999999999957e+00 1.059866000000000064e+01 1.967599999999999905e-01 4.709999999999999777e-03 5.775750000000000384e+00 1.033351000000000042e+01 1.031381000000000014e+01 2.774699999999999944e-01 3.798199999999999910e-01 4.861849999999999561e+00 5.192260000000000097e+00 1.028711000000000020e+01 5.564939999999999998e+00 1.072536000000000023e+01 5.131689999999999863e+00 3.713000000000000328e-02 5.790619999999999656e+00 4.881660000000000110e+00 7.503400000000000070e-01 2.468899999999999983e-01 5.297399999999999665e+00 5.227159999999999584e+00 5.285610000000000142e+00 5.372830000000000439e+00 5.603749999999999787e+00 2.428999999999999909e-02 4.447460000000000413e+00 4.306189999999999962e+00 3.744510000000000005e+00 4.904480000000000395e+00 3.873670000000000169e+00 9.881339999999999790e+00 3.513889999999999958e+00 9.330579999999999430e+00 4.366660000000000430e+00 4.103369999999999962e+00 9.272579999999999600e+00 9.813140000000000640e+00 9.981429999999999580e+00 4.101370000000000182e+00 3.612359999999999793e+00 1.002660000000000018e+01 4.123029999999999973e+00 9.550560000000000827e+00 8.527319999999999567e+00 9.346439999999999415e+00 1.179210000000000091e+00 7.012500000000000178e+00 7.066889999999999894e+00 1.393860000000000099e+00 3.533500000000000085e+00 1.762960000000000083e+00 1.236010000000000053e+00 4.423650000000000304e+00 1.725039999999999907e+00 6.435629999999999740e+00 6.279639999999999667e+00 6.661649999999999849e+00 9.246109999999999829e+00 4.089310000000000223e+00 7.001990000000000158e+00 6.853290000000000326e+00 9.056760000000000588e+00 1.556189999999999962e+00 8.874100000000000321e-01 9.346230000000000260e+00 1.209500000000000020e+00 6.332869999999999777e+00 3.892079999999999984e+00 1.708979999999999944e+00 3.889400000000000190e+00 4.589629999999999654e+00 1.366780000000000106e+00 9.222989999999999355e+00 3.693000000000000060e+00 7.094289999999999985e+00 4.077370000000000161e+00 8.489160000000000039e+00 6.018270000000000231e+00 9.818179999999999907e+00 9.058370000000000033e+00 1.849849999999999994e+00 3.795529999999999848e+00 9.587619999999999365e+00 1.581309999999999993e+00 9.372389999999999333e+00 9.738550000000000040e+00 6.292959999999999887e+00 1.722010000000000041e+00 9.158759999999999124e+00 9.348580000000000112e+00 6.695829999999999949e+00 3.565510000000000179e+00 4.430579999999999963e+00 1.356149999999999967e+00 3.733179999999999943e+00 4.328909999999999592e+00 6.749050000000000438e+00 8.084700000000000220e-01 8.761860000000000426e+00 1.541530000000000067e+00 3.791199999999999903e+00 9.442059999999999675e+00 7.170029999999999681e+00 8.556810000000000471e+00 3.893889999999999851e+00 1.328880000000000061e+00 9.376079999999999970e+00 4.448540000000000383e+00 6.357850000000000001e+00 9.302889999999999660e+00 6.790729999999999933e+00 7.404939999999999856e+00 8.991220000000000212e+00 9.308180000000000121e+00 4.110689999999999955e+00 1.536159999999999970e+00 1.241039999999999921e+00 4.520030000000000214e+00 1.816009999999999902e+00 1.591229999999999922e+00 9.841229999999999478e+00 1.014159999999999950e+00 6.398539999999999672e+00 3.706649999999999778e+00 1.473049999999999971e+00 6.691209999999999880e+00 8.970980000000000842e+00 6.691539999999999822e+00 1.350549999999999917e+00 4.922419999999999796e+00 6.305430000000000312e+00 2.275290000000000035e+00 5.623200000000000420e-01 6.625359999999999694e+00 6.451800000000000423e+00 4.005670000000000286e+00 6.820630000000000415e+00 9.301550000000000651e+00 9.451129999999999143e+00 6.194300000000000361e-01 3.843599999999999905e+00 1.110740000000000061e+00 1.581220000000000070e+00 7.987400000000000055e-01 6.907169999999999810e+00 1.236520000000000064e+00 9.419800000000000395e+00 9.960010000000000474e+00 1.510559999999999903e+00 6.110970000000000013e+00 6.373079999999999856e+00 6.197729999999999961e+00 4.451789999999999914e+00 1.653280000000000083e+00 6.273889999999999745e+00 3.753070000000000128e+00 6.302109999999999879e+00 6.624799999999999578e+00 9.095599999999999241e+00 3.866919999999999913e+00 6.995820000000000149e+00 6.204139999999999766e+00 6.327040000000000219e+00 2.011779999999999902e+00 4.102149999999999963e+00 3.971849999999999881e+00 2.175089999999999968e+00 3.825600000000000112e+00 9.023860000000000881e+00 1.178520000000000012e+00 9.143489999999999895e+00 4.327009999999999579e+00 9.510279999999999845e+00 8.848829999999999529e+00 9.707340000000000302e+00 7.128359999999999808e+00 3.957180000000000142e+00 4.038960000000000328e+00 7.322259999999999991e+00 3.654420000000000002e+00 8.804579999999999629e+00 6.396779999999999688e+00 9.009690000000000865e+00 6.741279999999999717e+00 3.237049999999999983e+00 9.507910000000000750e+00 1.541700000000000070e+00 8.511999999999999567e-01 1.072929999999999939e+00 2.148880000000000123e+00 1.344789999999999930e+00 8.684160000000000323e+00 6.783450000000000202e+00 1.565730000000000066e+00 6.307459999999999845e+00 7.062100000000000044e-01 1.226609999999999978e+00 3.541059999999999874e+00 6.675270000000000259e+00 5.956789999999999807e+00 1.684599999999999986e-01 1.795409999999999950e+00 6.800250000000000128e+00 1.303330000000000100e+00 7.860299999999999621e+00 4.295069999999999943e+00 6.892310000000000159e+00 1.084209999999999896e+00 9.072340000000000515e+00 6.823229999999999684e+00 4.393959999999999866e+00