1.019775270399999911e+01 0.000000000000000000e+00 0.000000000000000000e+00 3.580820299999999679e-02 1.064812768800000065e+01 0.000000000000000000e+00 -4.498245099999999969e-02 -4.893020800000000281e-02 1.020877396999999931e+01
1.022435596899999943e+01 0.000000000000000000e+00 0.000000000000000000e+00 3.590161699999999678e-02 1.067590586300000055e+01 0.000000000000000000e+00 -4.509979800000000344e-02 -4.905785399999999796e-02 1.023540598599999996e+01
1.007419900600000062e+01 0.000000000000000000e+00 0.000000000000000000e+00 3.537435900000000105e-02 1.051911734699999990e+01 0.000000000000000000e+00 -4.443745300000000176e-02 -4.833737999999999924e-02 1.008508673999999949e+01
1.018808645400000046e+01 0.000000000000000000e+00 0.000000000000000000e+00 3.577426100000000164e-02 1.063803453599999926e+01 0.000000000000000000e+00 -4.493981300000000206e-02 -4.888382799999999723e-02 1.019909727199999949e+01
1.022588732300000025e+01 0.000000000000000000e+00 0.000000000000000000e+00 3.590699399999999764e-02 1.067750484799999988e+01 0.000000000000000000e+00 -4.510655300000000062e-02 -4.906520200000000220e-02 1.023693899499999915e+01
1.024504328999999991e+01 0.000000000000000000e+00 0.000000000000000000e+00 3.597425800000000201e-02 1.069750682199999936e+01 0.000000000000000000e+00 -4.519105000000000344e-02 -4.915711500000000123e-02 1.025611566499999938e+01
1.037003424299999921e+01 0.000000000000000000e+00 0.000000000000000000e+00 3.641314899999999882e-02 1.082801789300000017e+01 0.000000000000000000e+00 -4.574238700000000241e-02 -4.975683799999999768e-02 1.038124170300000060e+01
1.013386142699999937e+01 0.000000000000000000e+00 0.000000000000000000e+00 3.558385599999999704e-02 1.058141470700000042e+01 0.000000000000000000e+00 -4.470062500000000077e-02 -4.862364899999999795e-02 1.014481364100000071e+01
1.027192600300000080e+01 0.000000000000000000e+00 0.000000000000000000e+00 3.606865399999999861e-02 1.072557678599999953e+01 0.000000000000000000e+00 -4.530962999999999657e-02 -4.928610199999999830e-02 1.028302743100000072e+01
1.045156194900000024e+01 0.000000000000000000e+00 0.000000000000000000e+00 3.669942400000000132e-02 1.091314619999999991e+01 0.000000000000000000e+00 -4.610200700000000040e-02 -5.014801900000000201e-02 1.046285752000000002e+01
1.002502253299999957e+01 0.000000000000000000e+00 0.000000000000000000e+00 3.520168099999999856e-02 1.046776903700000005e+01 0.000000000000000000e+00 -4.422053499999999832e-02 -4.810142500000000321e-02 1.003585711899999922e+01
1.020470602299999996e+01 0.000000000000000000e+00 0.000000000000000000e+00 3.583261900000000305e-02 1.065538809399999920e+01 0.000000000000000000e+00 -4.501312200000000263e-02 -4.896357099999999740e-02 1.021573480300000014e+01
1.014815509199999966e+01 0.000000000000000000e+00 0.000000000000000000e+00 3.563404700000000203e-02 1.059633964000000006e+01 0.000000000000000000e+00 -4.476367500000000277e-02 -4.869223200000000196e-02 1.015912275500000028e+01
1.023547717599999984e+01 0.000000000000000000e+00 0.000000000000000000e+00 3.594066800000000200e-02 1.068751822900000015e+01 0.000000000000000000e+00 -4.514885400000000215e-02 -4.911121499999999973e-02 1.024653921200000006e+01
1.035280386800000052e+01 0.000000000000000000e+00 0.000000000000000000e+00 3.635264700000000182e-02 1.081002655300000015e+01 0.000000000000000000e+00 -4.566638399999999737e-02 -4.967416499999999929e-02 1.036399270499999936e+01
1.024857809400000086e+01 0.000000000000000000e+00 0.000000000000000000e+00 3.598666999999999838e-02 1.070119773699999932e+01 0.000000000000000000e+00 -4.520664199999999827e-02 -4.917407499999999765e-02 1.025965428900000020e+01
1.035145209100000052e+01 0.000000000000000000e+00 0.000000000000000000e+00 3.634790000000000243e-02 1.080861507600000060e+01 0.000000000000000000e+00 -4.566042099999999965e-02 -4.966767899999999930e-02 1.036263946699999927e+01
1.040284270999999983e+01 0.000000000000000000e+00 0.000000000000000000e+00 3.652835200000000004e-02 1.086227531800000001e+01 0.000000000000000000e+00 -4.588710599999999695e-02 -4.991425800000000301e-02 1.041408562800000048e+01
1.013450316199999968e+01 0.000000000000000000e+00 0.000000000000000000e+00 3.558610999999999719e-02 1.058208478399999919e+01 0.000000000000000000e+00 -4.470345600000000252e-02 -4.862672800000000101e-02 1.014545606999999983e+01
1.027759086100000019e+01 0.000000000000000000e+00 0.000000000000000000e+00 3.608854499999999965e-02 1.073149182799999934e+01 0.000000000000000000e+00 -4.533461800000000014e-02 -4.931328199999999995e-02 1.028869841200000046e+01
1.032613638199999961e+01 0.000000000000000000e+00 0.000000000000000000e+00 3.625900700000000282e-02 1.078218131999999940e+01 0.000000000000000000e+00 -4.554875299999999738e-02 -4.954621000000000025e-02 1.033729639799999944e+01
1.005780518100000087e+01 0.000000000000000000e+00 0.000000000000000000e+00 3.531679399999999858e-02 1.050199950200000032e+01 0.000000000000000000e+00 -4.436513999999999736e-02 -4.825872099999999748e-02 1.006867519699999924e+01
1.042031482600000025e+01 0.000000000000000000e+00 0.000000000000000000e+00 3.658970400000000067e-02 1.088051907500000048e+01 0.000000000000000000e+00 -4.596417600000000242e-02 -4.999809100000000145e-02 1.043157662700000010e+01
1.027969922599999997e+01 0.000000000000000000e+00 0.000000000000000000e+00 3.609594900000000217e-02 1.073369330699999935e+01 0.000000000000000000e+00 -4.534391799999999695e-02 -4.932339899999999694e-02 1.029080905500000043e+01
1.039325299699999938e+01 0.000000000000000000e+00 0.000000000000000000e+00 3.649467900000000209e-02 1.085226208299999939e+01 0.000000000000000000e+00 -4.584480600000000183e-02 -4.986824499999999855e-02 1.040448555000000042e+01
1.039410814800000082e+01 0.000000000000000000e+00 0.000000000000000000e+00 3.649768199999999657e-02 1.085315500099999930e+01 0.000000000000000000e+00 -4.584857800000000094e-02 -4.987234799999999690e-02 1.040534162500000015e+01
1.011937988500000074e+01 0.000000000000000000e+00 0.000000000000000000e+00 3.553300599999999893e-02 1.056629360099999992e+01 0.000000000000000000e+00 -4.463674699999999745e-02 -4.855416399999999688e-02 1.013031644900000039e+01
1.009987320199999949e+01 0.000000000000000000e+00 0.000000000000000000e+00 3.546451099999999718e-02 1.054592542199999983e+01 0.000000000000000000e+00 -4.455070299999999706e-02 -4.846056900000000195e-02 1.011078868399999919e+01
1.024168670399999925e+01 0.000000000000000000e+00 0.000000000000000000e+00 3.596247200000000227e-02 1.069400199500000070e+01 0.000000000000000000e+00 -4.517624399999999735e-02 -4.914100899999999938e-02 1.025275545100000052e+01
9.999444944000000390e+00 0.000000000000000000e+00 0.000000000000000000e+00 3.511186899999999694e-02 1.044106183599999937e+01 0.000000000000000000e+00 -4.410771200000000031e-02 -4.797869999999999913e-02 1.001025188800000087e+01
1.039729415599999918e+01 0.000000000000000000e+00 0.000000000000000000e+00 3.650886899999999935e-02 1.085648171699999942e+01 0.000000000000000000e+00 -4.586263100000000092e-02 -4.988763499999999962e-02 1.040853107699999924e+01
1.031636431299999934e+01 0.000000000000000000e+00 0.000000000000000000e+00 3.622469400000000173e-02 1.077197767700000064e+01 0.000000000000000000e+00 -4.550564800000000271e-02 -4.949932299999999785e-02 1.032751376899999940e+01
1.022561076799999924e+01 0.000000000000000000e+00 0.000000000000000000e+00 3.590602300000000219e-02 1.067721607900000080e+01 0.000000000000000000e+00 -4.510533299999999746e-02 -4.906387499999999985e-02 1.023666214100000005e+01
1.021698609999999974e+01 0.000000000000000000e+00 0.000000000000000000e+00 3.587573899999999677e-02 1.066821050999999976e+01 0.000000000000000000e+00 -4.506729000000000290e-02 -4.902249200000000084e-02 1.022802815100000018e+01
1.003664054899999947e+01 0.000000000000000000e+00 0.000000000000000000e+00 3.524247700000000122e-02 1.047990015300000088e+01 0.000000000000000000e+00 -4.427178200000000258e-02 -4.815716999999999914e-02 1.004748769200000069e+01
1.034584776600000033e+01 0.000000000000000000e+00 0.000000000000000000e+00 3.632822100000000082e-02 1.080276324099999918e+01 0.000000000000000000e+00 -4.563570000000000126e-02 -4.964078799999999819e-02 1.035702908600000072e+01
1.028070003700000079e+01 0.000000000000000000e+00 0.000000000000000000e+00 3.609946299999999830e-02 1.073473831899999986e+01 0.000000000000000000e+00 -4.534833299999999762e-02 -4.932820100000000207e-02 1.029181094800000018e+01
1.018101822999999939e+01 0.000000000000000000e+00 0.000000000000000000e+00 3.574944199999999933e-02 1.063065414999999980e+01 0.000000000000000000e+00 -4.490863500000000230e-02 -4.884991400000000122e-02 1.019202140900000053e+01
1.031235653999999968e+01 0.000000000000000000e+00 0.000000000000000000e+00 3.621062099999999839e-02 1.076779290300000014e+01 0.000000000000000000e+00 -4.548797000000000257e-02 -4.948009300000000277e-02 1.032350166300000005e+01
1.048830305000000074e+01 0.000000000000000000e+00 0.000000000000000000e+00 3.682843599999999912e-02 1.095150993999999933e+01 0.000000000000000000e+00 -4.626407300000000278e-02 -5.032430799999999815e-02 1.049963832899999971e+01
1.019966393199999999e+01 0.000000000000000000e+00 0.000000000000000000e+00 3.581491400000000325e-02 1.065012332300000075e+01 0.000000000000000000e+00 -4.499088100000000340e-02 -4.893937799999999866e-02 1.021068726300000051e+01
1.024301006199999975e+01 0.000000000000000000e+00 0.000000000000000000e+00 3.596711899999999879e-02 1.069538379799999994e+01 0.000000000000000000e+00 -4.518208199999999841e-02 -4.914735900000000157e-02 1.025408023900000032e+01
1.021233184399999949e+01 0.000000000000000000e+00 0.000000000000000000e+00 3.585939600000000171e-02 1.066335070300000076e+01 0.000000000000000000e+00 -4.504675999999999819e-02 -4.900016100000000041e-02 1.022336886499999942e+01
1.038190300599999993e+01 0.000000000000000000e+00 0.000000000000000000e+00 3.645482500000000320e-02 1.084041082999999972e+01 0.000000000000000000e+00 -4.579474099999999992e-02 -4.981378599999999879e-02 1.039312329300000037e+01
1.027827950400000034e+01 0.000000000000000000e+00 0.000000000000000000e+00 3.609096299999999674e-02 1.073221088500000064e+01 0.000000000000000000e+00 -4.533765599999999701e-02 -4.931658700000000201e-02 1.028938779900000000e+01
1.022271162999999916e+01 0.000000000000000000e+00 0.000000000000000000e+00 3.589584299999999673e-02 1.067418890299999923e+01 0.000000000000000000e+00 -4.509254499999999777e-02 -4.904996400000000145e-02 1.023375987000000009e+01
1.035559404800000038e+01 0.000000000000000000e+00 0.000000000000000000e+00 3.636244400000000071e-02 1.081293995899999949e+01 0.000000000000000000e+00 -4.567869100000000043e-02 -4.968755200000000288e-02 1.036678590100000008e+01
1.016236605599999976e+01 0.000000000000000000e+00 0.000000000000000000e+00 3.568394700000000058e-02 1.061117821899999925e+01 0.000000000000000000e+00 -4.482636000000000259e-02 -4.876041799999999982e-02 1.017334907699999924e+01
1.003522769799999992e+01 0.000000000000000000e+00 0.000000000000000000e+00 3.523751600000000345e-02 1.047842490400000059e+01 0.000000000000000000e+00 -4.426555000000000073e-02 -4.815039100000000072e-02 1.004607331399999914e+01
1.020680567700000019e+01 0.000000000000000000e+00 0.000000000000000000e+00 3.583999100000000160e-02 1.065758047699999977e+01 0.000000000000000000e+00 -4.502238399999999863e-02 -4.897364500000000315e-02 1.021783672599999981e+01
1.046778550400000007e+01 0.000000000000000000e+00 0.000000000000000000e+00 3.675639099999999937e-02 1.093008625400000078e+01 0.000000000000000000e+00 -4.617356999999999712e-02 -5.022586200000000306e-02 1.047909860799999926e+01
1.017190500999999969e+01 0.000000000000000000e+00 0.000000000000000000e+00 3.571744200000000202e-02 1.062113845200000029e+01 0.000000000000000000e+00 -4.486843599999999765e-02 -4.880618700000000088e-02 1.018289833999999949e+01
1.028983692799999972e+01 0.000000000000000000e+00 0.000000000000000000e+00 3.613154600000000050e-02 1.074427873199999972e+01 0.000000000000000000e+00 -4.538863600000000303e-02 -4.937204099999999846e-02 1.030095771400000082e+01
1.017930618399999965e+01 0.000000000000000000e+00 0.000000000000000000e+00 3.574342999999999965e-02 1.062886649300000030e+01 0.000000000000000000e+00 -4.490108300000000136e-02 -4.884169900000000231e-02 1.019030751300000048e+01
1.016868380700000074e+01 0.000000000000000000e+00 0.000000000000000000e+00 3.570613100000000206e-02 1.061777498800000075e+01 0.000000000000000000e+00 -4.485422700000000346e-02 -4.879073099999999691e-02 1.017967365600000029e+01
1.030170223500000048e+01 0.000000000000000000e+00 0.000000000000000000e+00 3.617320899999999784e-02 1.075666806000000086e+01 0.000000000000000000e+00 -4.544097400000000203e-02 -4.942897200000000157e-02 1.031283584400000031e+01
1.037605141899999950e+01 0.000000000000000000e+00 0.000000000000000000e+00 3.643427800000000050e-02 1.083430081200000039e+01 0.000000000000000000e+00 -4.576892899999999986e-02 -4.978570999999999691e-02 1.038726538100000063e+01
1.026478319900000002e+01 0.000000000000000000e+00 0.000000000000000000e+00 3.604357300000000236e-02 1.071811852699999967e+01 0.000000000000000000e+00 -4.527812300000000345e-02 -4.925182899999999697e-02 1.027587690800000075e+01
1.039998837299999934e+01 0.000000000000000000e+00 0.000000000000000000e+00 3.651833000000000162e-02 1.085929492100000004e+01 0.000000000000000000e+00 -4.587451599999999713e-02 -4.990056200000000247e-02 1.041122820500000046e+01
1.012366581500000073e+01 0.000000000000000000e+00 0.000000000000000000e+00 3.554805600000000149e-02 1.057076881499999921e+01 0.000000000000000000e+00 -4.465565199999999707e-02 -4.857472899999999705e-02 1.013460701099999994e+01
1.024304077799999924e+01 0.000000000000000000e+00 0.000000000000000000e+00 3.596722699999999745e-02 1.069541587099999980e+01 0.000000000000000000e+00 -4.518221699999999674e-02 -4.914750600000000053e-02 1.025411098900000084e+01
1.039400595600000088e+01 0.000000000000000000e+00 0.000000000000000000e+00 3.649732299999999818e-02 1.085304829600000076e+01 0.000000000000000000e+00 -4.584812700000000241e-02 -4.987185799999999808e-02 1.040523932299999998e+01
1.017536489999999993e+01 0.000000000000000000e+00 0.000000000000000000e+00 3.572959099999999805e-02 1.062475114599999948e+01 0.000000000000000000e+00 -4.488369799999999965e-02 -4.882278799999999891e-02 1.018636197000000010e+01
1.004569146699999926e+01 0.000000000000000000e+00 0.000000000000000000e+00 3.527425800000000278e-02 1.048935079700000017e+01 0.000000000000000000e+00 -4.431170599999999932e-02 -4.820059699999999780e-02 1.005654839199999984e+01
1.036289857999999953e+01 0.000000000000000000e+00 0.000000000000000000e+00 3.638809300000000330e-02 1.082056708900000075e+01 0.000000000000000000e+00 -4.571091199999999938e-02 -4.972259999999999874e-02 1.037409832700000045e+01
1.010239634500000072e+01 0.000000000000000000e+00 0.000000000000000000e+00 3.547336999999999713e-02 1.054855999699999991e+01 0.000000000000000000e+00 -4.456183200000000261e-02 -4.847267499999999979e-02 1.011331455400000046e+01
1.022795430200000055e+01 0.000000000000000000e+00 0.000000000000000000e+00 3.591425200000000068e-02 1.067966311300000015e+01 0.000000000000000000e+00 -4.511566999999999661e-02 -4.907511900000000038e-02 1.023900820699999947e+01
1.029932651600000071e+01 0.000000000000000000e+00 0.000000000000000000e+00 3.616486700000000332e-02 1.075418741999999916e+01 0.000000000000000000e+00 -4.543049400000000182e-02 -4.941757299999999936e-02 1.031045755799999952e+01
1.043565598800000060e+01 0.000000000000000000e+00 0.000000000000000000e+00 3.664357199999999926e-02 1.089653776499999971e+01 0.000000000000000000e+00 -4.603184600000000126e-02 -5.007169999999999677e-02 1.044693436800000086e+01
1.023676880700000069e+01 0.000000000000000000e+00 0.000000000000000000e+00 3.594520300000000196e-02 1.068886690399999928e+01 0.000000000000000000e+00 -4.515455100000000110e-02 -4.911741299999999866e-02 1.024783223899999918e+01
1.039617178900000027e+01 0.000000000000000000e+00 0.000000000000000000e+00 3.650492799999999899e-02 1.085530978100000077e+01 0.000000000000000000e+00 -4.585768099999999736e-02 -4.988225000000000298e-02 1.040740749599999937e+01
1.030301666099999913e+01 0.000000000000000000e+00 0.000000000000000000e+00 3.617782499999999679e-02 1.075804053699999940e+01 0.000000000000000000e+00 -4.544677200000000333e-02 -4.943527899999999864e-02 1.031415169099999929e+01
1.030842189900000072e+01 0.000000000000000000e+00 0.000000000000000000e+00 3.619680499999999856e-02 1.076368449199999944e+01 0.000000000000000000e+00 -4.547061399999999948e-02 -4.946121400000000334e-02 1.031956276999999922e+01
1.018178670700000055e+01 0.000000000000000000e+00 0.000000000000000000e+00 3.575214000000000170e-02 1.063145656600000066e+01 0.000000000000000000e+00 -4.491202400000000178e-02 -4.885360100000000344e-02 1.019279071699999939e+01
1.033139166299999978e+01 0.000000000000000000e+00 0.000000000000000000e+00 3.627745999999999749e-02 1.078766869600000078e+01 0.000000000000000000e+00 -4.557193400000000144e-02 -4.957142600000000177e-02 1.034255735900000062e+01
1.035571843099999967e+01 0.000000000000000000e+00 0.000000000000000000e+00 3.636288099999999968e-02 1.081306983500000030e+01 0.000000000000000000e+00 -4.567924000000000290e-02 -4.968814900000000090e-02 1.036691041799999979e+01
1.019043730099999934e+01 0.000000000000000000e+00 0.000000000000000000e+00 3.578251600000000032e-02 1.064048920699999989e+01 0.000000000000000000e+00 -4.495018199999999825e-02 -4.889510799999999963e-02 1.020145066000000078e+01
1.044940341300000064e+01 0.000000000000000000e+00 0.000000000000000000e+00 3.669184500000000071e-02 1.091089233399999969e+01 0.000000000000000000e+00 -4.609248600000000196e-02 -5.013766199999999951e-02 1.046069665099999924e+01
1.023785769700000081e+01 0.000000000000000000e+00 0.000000000000000000e+00 3.594902700000000145e-02 1.069000388399999935e+01 0.000000000000000000e+00 -4.515935499999999825e-02 -4.912263699999999678e-02 1.024892230600000076e+01
1.036741888999999972e+01 0.000000000000000000e+00 0.000000000000000000e+00 3.640396600000000288e-02 1.082528703500000056e+01 0.000000000000000000e+00 -4.573085100000000291e-02 -4.974428899999999709e-02 1.037862352299999991e+01
1.039595127599999991e+01 0.000000000000000000e+00 0.000000000000000000e+00 3.650415399999999699e-02 1.085507952999999937e+01 0.000000000000000000e+00 -4.585670800000000297e-02 -4.988119199999999781e-02 1.040718674500000063e+01
1.019419463200000031e+01 0.000000000000000000e+00 0.000000000000000000e+00 3.579570900000000194e-02 1.064441247599999940e+01 0.000000000000000000e+00 -4.496675599999999662e-02 -4.891313600000000289e-02 1.020521205200000026e+01
1.030608675200000057e+01 0.000000000000000000e+00 0.000000000000000000e+00 3.618860499999999869e-02 1.076124621599999998e+01 0.000000000000000000e+00 -4.546031400000000167e-02 -4.945001000000000257e-02 1.031722509999999993e+01
1.027640361399999946e+01 0.000000000000000000e+00 0.000000000000000000e+00 3.608437600000000134e-02 1.073025214799999993e+01 0.000000000000000000e+00 -4.532938100000000192e-02 -4.930758600000000047e-02 1.028750988200000016e+01
1.028404654700000087e+01 0.000000000000000000e+00 0.000000000000000000e+00 3.611121400000000259e-02 1.073823262400000011e+01 0.000000000000000000e+00 -4.536309399999999964e-02 -4.934425800000000195e-02 1.029516107499999933e+01
1.030174694399999957e+01 0.000000000000000000e+00 0.000000000000000000e+00 3.617336599999999847e-02 1.075671474399999994e+01 0.000000000000000000e+00 -4.544117100000000242e-02 -4.942918699999999943e-02 1.031288060199999990e+01
1.029018699899999945e+01 0.000000000000000000e+00 0.000000000000000000e+00 3.613277499999999892e-02 1.074464426399999972e+01 0.000000000000000000e+00 -4.539018000000000219e-02 -4.937372000000000288e-02 1.030130816299999985e+01
1.017953325100000050e+01 0.000000000000000000e+00 0.000000000000000000e+00 3.574422800000000289e-02 1.062910358799999955e+01 0.000000000000000000e+00 -4.490208400000000183e-02 -4.884278899999999757e-02 1.019053482600000038e+01
1.025713003399999934e+01 0.000000000000000000e+00 0.000000000000000000e+00 3.601669899999999924e-02 1.071012736600000004e+01 0.000000000000000000e+00 -4.524436500000000166e-02 -4.921510800000000047e-02 1.026821547199999962e+01
1.024711830500000076e+01 0.000000000000000000e+00 0.000000000000000000e+00 3.598154399999999725e-02 1.069967347799999935e+01 0.000000000000000000e+00 -4.520020300000000130e-02 -4.916707099999999969e-02 1.025819292299999930e+01
1.030687955199999983e+01 0.000000000000000000e+00 0.000000000000000000e+00 3.619138899999999742e-02 1.076207402900000076e+01 0.000000000000000000e+00 -4.546381099999999981e-02 -4.945381299999999924e-02 1.031801875700000082e+01
1.020456469199999994e+01 0.000000000000000000e+00 0.000000000000000000e+00 3.583212200000000097e-02 1.065524052199999971e+01 0.000000000000000000e+00 -4.501249899999999748e-02 -4.896289300000000039e-02 1.021559331999999998e+01
1.038144354299999961e+01 0.000000000000000000e+00 0.000000000000000000e+00 3.645321199999999873e-02 1.083993107500000086e+01 0.000000000000000000e+00 -4.579271399999999825e-02 -4.981158200000000008e-02 1.039266333299999978e+01
1.037618761399999912e+01 0.000000000000000000e+00 0.000000000000000000e+00 3.643475599999999870e-02 1.083444302200000031e+01 0.000000000000000000e+00 -4.576953000000000271e-02 -4.978636300000000015e-02 1.038740172299999998e+01
1.044035674799999924e+01 0.000000000000000000e+00 0.000000000000000000e+00 3.666007799999999872e-02 1.090144613100000015e+01 0.000000000000000000e+00 -4.605258100000000215e-02 -5.009425499999999726e-02 1.045164020900000068e+01
1.035470185500000007e+01 0.000000000000000000e+00 0.000000000000000000e+00 3.635931099999999833e-02 1.081200836300000034e+01 0.000000000000000000e+00 -4.567475599999999691e-02 -4.968327100000000107e-02 1.036589274399999994e+01
1.041919953899999918e+01 0.000000000000000000e+00 0.000000000000000000e+00 3.658578700000000156e-02 1.087935453200000069e+01 0.000000000000000000e+00 -4.595925599999999694e-02 -4.999274000000000079e-02 1.043046013400000049e+01
1.032375607800000061e+01 0.000000000000000000e+00 0.000000000000000000e+00 3.625064900000000284e-02 1.077969589199999945e+01 0.000000000000000000e+00 -4.553825400000000023e-02 -4.953478900000000268e-02 1.033491352200000080e+01
1.016393045899999947e+01 0.000000000000000000e+00 0.000000000000000000e+00 3.568944000000000283e-02 1.061281171199999918e+01 0.000000000000000000e+00 -4.483325999999999978e-02 -4.876792399999999722e-02 1.017491517100000031e+01
1.003882795500000036e+01 0.000000000000000000e+00 0.000000000000000000e+00 3.525015799999999672e-02 1.048218416399999953e+01 0.000000000000000000e+00 -4.428143100000000304e-02 -4.816766499999999840e-02 1.004967746200000001e+01
