-9.129140949999999748e+02
-9.067677383499999451e+02
-9.257728445400000510e+02
-9.284087613799999872e+02
-9.084455690199999935e+02
-9.222955837900000233e+02
-9.167803098699999964e+02
-9.090090906399999540e+02
-9.330398104900000362e+02
-9.221316108199999917e+02
-9.156607056999999941e+02
-9.192520720300000221e+02
-9.335980596499999820e+02
-9.299514308300000494e+02
-9.118078597700000500e+02
-9.183617325300000402e+02
-9.202240604800000483e+02
-9.340587946000000557e+02
-9.139274031600000399e+02
-9.387093201599999475e+02
-9.210003068199999916e+02
-9.268098172200000135e+02
-9.214438014800000474e+02
-9.142893250399999943e+02
-9.176286313900000096e+02
-9.135966344099999787e+02
-9.143833025300000372e+02
-9.317383920500000158e+02
-9.177577828700000282e+02
-9.220197898000000123e+02
-9.332701935500000445e+02
-9.122326724900000272e+02
-9.398766303300000118e+02
-9.222090119299999742e+02
-9.292739802500000224e+02
-9.331042878099999598e+02
-9.112502389100000073e+02
-9.162400688999999829e+02
-9.193165918400000010e+02
-9.172458949599999869e+02
-9.086969849399999930e+02
-9.201593549599999733e+02
-9.154684414800000241e+02
-9.202838141900000437e+02
-9.101817538699999659e+02
-9.255331264100000226e+02
-9.223128291000000445e+02
-9.259819693499999858e+02
-9.157239084999999932e+02
-9.168692739699999947e+02
-9.166667821800000411e+02
-9.318254519800000253e+02
-9.174555307000000539e+02
-9.109377270200000112e+02
-9.165654865300000438e+02
-9.237397374399999990e+02
-9.145365230400000200e+02
-9.201704276699999809e+02
-9.216135814100000516e+02
-9.149903383099999701e+02
-9.071664928400000463e+02
-9.213186168900000439e+02
-9.162275211899999476e+02
-9.155503844400000162e+02
-9.141297251400000050e+02
-9.163556781300000011e+02
-9.205816790000000083e+02
-9.199707390600000281e+02
-9.212063866900000448e+02
-9.215182170099999439e+02
-9.182190947999999935e+02
-9.105906967800000302e+02
-9.100591343700000380e+02
-9.219163311500000191e+02
-9.257651266799999803e+02
-9.220852947800000265e+02
-9.132502167200000258e+02
-9.192033638599999676e+02
-9.261797082299999602e+02
-9.058801356699999587e+02
-9.151578657100000100e+02
-9.172349976199999446e+02
-9.145939254099999971e+02
-9.169451228100000435e+02
-9.129305492199999890e+02
-9.131803185400000302e+02
-9.119639707500000441e+02
-9.325437726200000270e+02
-9.226724586399999453e+02
-9.356622335800000201e+02
-9.191185019600000032e+02
-9.400192952899999455e+02
-9.325436359000000266e+02
-9.197891289399999550e+02
-9.337777377899999465e+02
-9.122498656200000369e+02
-9.215944011100000353e+02
-9.176155851500000153e+02
-9.193224834200000259e+02
-9.140265958500000352e+02
-9.216916353000000299e+02
-9.359982453699999496e+02
-9.248911043599999857e+02
-9.130871257100000093e+02
-9.188787635899999486e+02
-9.140706603200000018e+02
-9.235038157499999443e+02
-9.210872572800000171e+02
-9.209522312599999623e+02
-9.071045560999999680e+02
-9.223186219699999810e+02
-9.212117925300000252e+02
-9.135985811900000044e+02
-9.092463497799999459e+02
-9.194355495500000188e+02
-9.126471297399999685e+02
-9.228967813399999613e+02
-9.148673383100000365e+02
-9.224324902099999690e+02
-9.247483380700000453e+02
-9.185184051999999610e+02
-9.223509447799999634e+02
-9.158331095900000491e+02
-9.240638478299999861e+02
-9.166358796499999926e+02
-9.171951012399999854e+02
-9.167281252799999720e+02
-9.328944945099999586e+02
-9.219039804400000548e+02
-9.289906135100000029e+02
-9.176533463499999925e+02
-9.125337967100000469e+02
-9.203016311400000404e+02
-9.163505235799999582e+02
-9.110261627099999941e+02
-9.104860139500000287e+02
-9.163522819300000037e+02
-9.181548200299999962e+02
-9.186333947499999795e+02
-9.233047829199999796e+02
-9.118733890299999985e+02
-9.154075679699999455e+02
-9.394284457500000372e+02
-9.181513818299999912e+02
-9.211190921400000207e+02
-9.222689712400000417e+02
-9.250458734999999706e+02
-9.168686606799999481e+02
-9.432233248100000083e+02
-9.180468222599999990e+02
-9.198160716999999522e+02
-9.244285575400000425e+02
-9.019951562300000205e+02
-9.178193418199999769e+02
-9.077032543200000418e+02
-9.098459280299999818e+02
-9.185391916199999969e+02
-9.122528517299999749e+02
-9.210549413899999536e+02
-9.326898345600000084e+02
-9.278367397600000004e+02
-9.115051492400000370e+02
-9.169595802200000207e+02
-9.247677158999999847e+02
-9.300969056999999793e+02
-9.329008377000000110e+02
-9.315140536100000190e+02
-9.326840262599999960e+02
-9.151116651400000137e+02
-9.353822527600000285e+02
-9.179920854199999667e+02
-9.100889456099999961e+02
-9.205569467899999836e+02
-9.195371096799999577e+02
-9.177063549499999908e+02
-9.089984141700000464e+02
-9.130895152199999529e+02
-9.070443452499999921e+02
-9.251351666100000557e+02
-9.167885684599999649e+02
-9.136837054000000080e+02
-9.165194834000000128e+02
-9.208732134199999564e+02
-9.125334708300000557e+02
-9.167428087700000106e+02
-9.209516815499999893e+02
-9.478658590500000400e+02
-9.129860112699999490e+02
-9.247651465300000382e+02
-9.256698969599999600e+02
-9.089715769399999772e+02
-9.122549826299999722e+02
-9.264412088000000267e+02
-9.176507565699999986e+02
-9.196492982600000232e+02
-9.231183966500000224e+02
-9.108065610099999958e+02
-9.224980707500000108e+02
-9.158446916799999826e+02
-9.236273350999999820e+02
