2.063083999999999918e+00 1.090526000000000106e+00 1.226115000000000066e+00 -2.462529999999999997e-01 -1.320731000000000099e+00 -4.108870000000000022e-01 -7.736060000000000159e-01 -2.937643000000000004e+00 -1.107279999999999931e-01 7.496899999999999675e-01 -1.888697000000000070e+00 5.315539999999999710e-01 -1.273287999999999975e+00 1.158041000000000098e+00 2.407970999999999862e+00 1.292230000000000045e-01 -1.287074999999999969e+00 -2.741719999999999935e+00 7.845699999999999896e-02 -1.159310000000000063e-01 -2.279850000000000154e+00 3.682179999999999898e-01 -5.182670000000000332e-01 -6.394700000000000384e-02 1.760445999999999955e+00 6.433400000000000230e-01 -1.300719999999999932e-01 -8.400739999999999874e-01 -8.420619999999999772e-01 2.246013000000000037e+00 -6.963500000000000245e-02 -6.039480000000000404e-01 -3.828219999999999956e-01 6.310639999999999583e-01 2.650999999999999884e-02 1.652304999999999913e+00 7.501550000000000162e-01 -3.707179999999999920e-01 -1.396085000000000020e+00 7.355000000000000426e-02 -5.874420000000000197e-01 -7.057790000000000452e-01 -1.170835000000000070e+00 -2.560600000000000029e-02 -1.998126999999999986e+00 1.721590000000000065e-01 4.386700000000000321e-02 2.343604000000000021e+00 -1.239619999999999944e+00 1.281933999999999907e+00 1.352900999999999909e+00 -1.638670999999999989e+00 7.379839999999999733e-01 5.845139999999999780e-01 1.644862999999999964e+00 6.311649999999999761e-01 1.985250000000000070e-01 4.614670000000000161e-01 7.186109999999999998e-01 -3.823559999999999737e-01 7.877079999999999638e-01 2.204700000000000062e-02 7.053709999999999702e-01 -8.043730000000000047e-01 1.614894000000000052e+00 -2.155711000000000155e+00 2.992549999999999932e-01 -2.874588000000000143e+00 1.776399000000000061e+00 2.744966999999999935e+00 3.346799999999999775e-01 -2.778754000000000168e+00 -2.735307999999999851e+00 6.427300000000000235e-01 -3.090199999999999891e-02 1.376930000000000098e-01 -2.058879000000000126e+00 -3.019319999999999782e-01 -2.955007000000000161e+00 -2.060941999999999830e+00 5.639729999999999466e-01 1.595653999999999906e+00 -8.669540000000000024e-01 4.181453999999999560e+00 4.699579999999999869e-01 -1.454096999999999973e+00 -5.779140000000000388e-01 -3.844000000000000195e-02 -1.357740000000000058e-01 1.522847000000000062e+00 1.871124000000000009e+00 4.179499999999999882e-02 2.301851999999999787e+00 -8.611990000000000478e-01 -2.047160000000000091e-01 7.178510000000000169e-01 2.152830000000000021e-01 -4.685299999999999881e-02 -9.934490000000000265e-01 4.345829999999999971e-01 9.350119999999999543e-01 1.604330999999999952e+00 1.416639999999999899e+00 1.595528999999999975e+00 -5.360899999999999693e-02 7.775090000000000057e-01 2.928891000000000133e+00 1.270831000000000044e+00 -3.704560000000000075e-01 7.249740000000000073e-01 7.522839999999999527e-01 7.081290000000000084e-01 1.142462000000000089e+00 1.662669999999999981e-01 5.266990000000000283e-01 -1.185245000000000104e+00 -9.130000000000000338e-01 -6.403170000000000250e-01 1.294280000000000097e+00 1.265390000000000126e-01 -7.178130000000000344e-01 -8.797840000000000105e-01 8.177860000000000129e-01 -3.235609999999999875e-01 -2.343580000000000108e-01 -8.567839999999999900e-01 -1.076259999999999994e-01 9.155959999999999654e-01 -2.024980000000000113e-01 1.213710999999999984e+00 9.996479999999999810e-01 -6.909530000000000394e-01 7.087670000000000359e-01 -6.948060000000000347e-01 1.710020000000000095e+00 -2.362731000000000137e+00 -9.078500000000000458e-02 1.010243999999999920e+00 2.024590000000000001e-01 -1.993541999999999925e+00 1.883879999999999999e+00 5.338749999999999885e-01 3.213460000000000205e-01 1.251220999999999917e+00 1.357345999999999941e+00 6.483980000000000299e-01 -5.268059999999999965e-01 2.319539999999999935e-01 5.567260000000000542e-01 -1.649067000000000061e+00 -6.323220000000000507e-01 -1.112106000000000039e+00 4.171659999999999813e-01 4.851190000000000224e-01 6.491460000000000008e-01 -2.198167000000000204e+00 6.587549999999999795e-01 1.881151999999999935e+00 -1.811485000000000012e+00 -1.602732000000000046e+00 8.434599999999999875e-01 3.384480000000000266e-01 -7.033770000000000300e-01 2.091320000000000123e-01 2.103543999999999858e+00 8.103759999999999852e-01 5.025899999999999812e-02 1.010796000000000028e+00 -1.162336999999999954e+00 8.830059999999999576e-01 -2.136170000000000013e-01 -1.930855999999999906e+00 -8.000999999999999779e-02 -2.513612999999999875e+00 2.044800000000000090e-02 1.650610000000000133e-01 2.841810000000000169e-01 1.233414000000000010e+00 1.720919999999999950e-01 -1.923839999999999995e+00 3.646449999999999969e-01 3.986029999999999851e-01 -6.313100000000000656e-02 8.228100000000000414e-01 1.164440000000000058e-01 -3.783399999999999958e-02 -1.797986000000000084e+00 4.828100000000000169e-01 1.809042000000000039e+00 -1.971703999999999901e+00 -8.325789999999999580e-01 8.879050000000000553e-01 -2.307821000000000122e+00 -6.214809999999999501e-01 4.415700000000000180e-01 1.921470000000000122e-01 -4.300579999999999958e-01 -1.524831000000000047e+00 9.162000000000000005e-03 3.626039999999999819e-01 -7.813930000000000042e-01 4.614770000000000261e-01 -2.312329999999999941e-01 -9.999780000000000335e-01 -1.747554999999999970e+00 -1.244799999999999934e-01 8.949639999999999818e-01 -1.559168000000000109e+00 -7.951930000000000387e-01 -9.749050000000000216e-01 -2.017590999999999912e+00 5.799440000000000150e-01 1.751805999999999974e+00 8.966799999999999771e-02 -1.781689999999999940e-01 -1.321966999999999892e+00 -1.374759999999999982e+00 1.217858000000000107e+00 -2.404099999999999987e-02 -1.579215000000000035e+00 -7.319750000000000423e-01 3.987470000000000181e-01 -1.002640000000000059e-01 5.562319999999999487e-01 -1.603139000000000092e+00 -2.278087000000000195e+00 -6.228380000000000027e-01 -2.462607000000000212e+00 -1.218936000000000019e+00 -4.992489999999999983e-01 -6.844470000000000276e-01 -1.787749999999999895e-01 -2.435470000000000135e-01 -1.348791000000000073e+00 -1.274801000000000073e+00 -2.069310000000000038e-01 -2.011769999999999947e-01 2.256155999999999828e+00 3.185040000000000093e-01 -3.015572000000000141e+00 7.054120000000000390e-01 1.691794999999999938e+00 -5.457560000000000189e-01 3.567776999999999976e+00 1.101583999999999897e+00 -6.482019999999999449e-01 1.643315000000000081e+00 2.011455000000000215e+00 1.062469999999999942e-01 1.082038000000000055e+00 -1.264308999999999905e+00 -7.198600000000000554e-01 1.032796999999999965e+00 -8.224199999999999566e-02 -5.400840000000000085e-01 1.074669999999999931e-01 3.018149999999999999e-01 4.323679999999999746e-01 3.990699999999999803e-01 -3.826309999999999989e-01 -8.879829999999999668e-01 -1.710700000000000068e-02 3.103650000000000020e-01 -1.297379999999999922e-01 4.880070000000000241e-01 -1.655629999999999880e-01 1.010234999999999994e+00 1.019180999999999893e+00 -6.683470000000000244e-01 2.458134999999999959e+00 1.395971999999999991e+00 -2.471970000000000001e-01 2.524429999999999730e-01 -1.770519999999999872e-01 -1.085727000000000109e+00 -5.733009999999999495e-01 5.467319999999999958e-01 -9.870619999999999949e-01 7.933810000000000029e-01 -7.819260000000000099e-01 2.128906999999999883e+00 -1.396352000000000038e+00 1.075555000000000039e+00 -6.108419999999999961e-01 1.181934999999999958e+00
5.038200000000000456e-01 5.669490000000000363e-01 1.818029999999999924e-01 -1.945089000000000068e+00 -2.498457000000000150e+00 5.267969999999999597e-01 1.627649999999999930e-01 -3.857966999999999924e+00 6.758760000000000323e-01 -1.186460000000000015e-01 -5.944960000000000244e-01 1.498780000000000112e-01 2.055905000000000094e+00 -3.774750000000000050e-01 4.099200000000000066e-01 -1.639375999999999944e+00 -1.843512000000000040e+00 1.349506000000000094e+00 -3.299690000000000123e-01 -3.600979999999999737e-01 1.599823999999999913e+00 -6.001399999999999790e-02 -3.219560000000000199e-01 -1.017104999999999926e+00 -8.267930000000000001e-01 1.270202000000000053e+00 1.387729999999999908e+00 -6.221640000000000503e-01 2.265517000000000003e+00 -2.126740000000000019e-01 4.303974000000000188e+00 9.693490000000000162e-01 -1.825828000000000007e+00 1.632880000000000109e+00 -2.587159000000000209e+00 -2.313307000000000002e+00 -1.863049999999999984e-01 -9.301220000000000043e-01 -8.182089999999999641e-01 2.260380000000000056e+00 -1.653000999999999943e+00 1.641156000000000059e+00 4.692120000000000180e-01 -1.730289999999999884e-01 1.627407999999999966e+00 1.140303000000000067e+00 1.952005999999999908e+00 1.599113999999999924e+00 -1.996375000000000011e+00 2.531692000000000053e+00 -2.170229999999999937e-01 -1.153642999999999974e+00 9.202280000000000459e-01 -1.914347000000000021e+00 2.716073000000000182e+00 2.421979999999999966e-01 -1.513144999999999962e+00 -5.696219999999999617e-01 1.579665000000000097e+00 5.755639999999999645e-01 1.084930000000000061e-01 6.572699999999999376e-02 -1.013215999999999894e+00 2.500535000000000174e+00 -2.407330000000000025e-01 1.132690999999999892e+00 3.870759999999999756e-01 5.596079999999999943e-01 1.274758999999999975e+00 8.461499999999999577e-01 9.893819999999999837e-01 -1.675523000000000096e+00 -9.797019999999999618e-01 8.611330000000000373e-01 4.627360000000000362e+00 -4.159129999999999772e-01 6.338759999999999950e-01 -6.484090000000000131e-01 -8.421600000000000197e-01 -2.708729999999999749e-01 -5.548819999999999864e-01 -1.170269000000000004e+00 -9.544049999999999478e-01 -1.363048000000000037e+00 1.342379999999999962e-01 5.250219999999999887e-01 -1.261290999999999940e+00 8.854670000000000041e-01 -3.726729999999999765e-01 4.048559999999999937e-01 -8.253249999999999753e-01 -1.186347000000000040e+00 2.096163999999999916e+00 -2.709394000000000080e+00 -2.682109999999999772e-01 -5.283919999999999728e-01 5.283510000000000151e-01 1.275455999999999923e+00 -3.979940000000000144e-01 -4.385910000000000086e-01 6.922369999999999912e-01 -8.307609999999999717e-01 -1.767776000000000014e+00 -3.148569999999999980e-01 -1.216460000000000097e+00 -3.937260000000000204e-01 -7.544689999999999452e-01 -3.100269999999999970e-01 1.048820000000000086e+00 -1.580616000000000021e+00 -3.688409999999999744e-01 -1.094492000000000020e+00 1.475059999999999982e-01 -1.554609999999999881e-01 -2.392149999999999999e+00 -4.400600000000000067e-01 4.980490000000000195e-01 -1.699602000000000057e+00 7.233659999999999535e-01 5.674230000000000107e-01 -1.038813999999999904e+00 6.729009999999999714e-01 -1.641159000000000034e+00 3.510559999999999792e-01 1.641434000000000060e+00 4.418849999999999723e-01 2.643880000000000119e-01 2.108299999999999896e-01 -2.087463000000000068e+00 -4.918230000000000102e-01 -6.171539999999999804e-01 -9.529200000000000170e-02 2.411959999999999937e-01 3.464860000000000162e-01 4.185809999999999809e-01 -1.243517999999999901e+00 1.145766000000000062e+00 1.121636000000000077e+00 -4.239290000000000003e-01 -4.796270000000000255e-01 1.060767999999999933e+00 -1.239197000000000104e+00 -1.001803999999999917e+00 -9.207389999999999741e-01 -2.840630000000000099e-01 -5.417779999999999818e-01 5.999870000000000481e-01 -2.364914000000000183e+00 -1.099969999999999976e-01 -1.583830999999999989e+00 -9.189100000000000046e-02 9.950480000000000436e-01 1.945810000000000040e-01 8.146870000000000500e-01 2.565500000000000003e-01 -2.266716000000000175e+00 5.557339999999999502e-01 9.953579999999999650e-01 -1.410720000000000030e-01 -5.655320000000000347e-01 -1.683049000000000017e+00 5.727600000000000469e-01 1.608054000000000094e+00 8.483200000000000462e-02 4.418420000000000125e-01 -5.720340000000000424e-01 1.728186999999999918e+00 1.038286000000000042e+00 3.217240000000000100e-01 2.652629999999999821e+00 5.304879999999999596e-01 1.867617000000000083e+00 -2.289279999999999926e-01 1.168754000000000071e+00 2.180819999999999981e-01 -1.374897000000000036e+00 3.849469999999999836e-01 5.241829999999999545e-01 -1.064909000000000106e+00 -2.843249999999999944e-01 2.602929999999999966e-01 -3.349539999999999740e-01 7.192570000000000352e-01 -1.117380000000000040e-01 1.312740999999999936e+00 -1.298315000000000108e+00 -2.144749999999999990e-01 2.374597000000000069e+00 -1.354405999999999999e+00 -1.435683000000000042e+00 -3.107889999999999819e-01 5.595499999999999918e-01 1.075740000000000030e-01 6.080769999999999786e-01 6.542540000000000022e-01 -7.610240000000000338e-01 -1.238247000000000098e+00 1.348103000000000051e+00 -8.504509999999999570e-01 9.849639999999999507e-01 9.675300000000000566e-02 -2.029030000000000000e-01 -8.937239999999999629e-01 1.731675999999999993e+00 6.052859999999999907e-01 3.777119999999999922e-01 -1.039905000000000079e+00 -2.386032999999999848e+00 1.388333999999999957e+00 9.913699999999999735e-01 -2.765222000000000069e+00 2.636720000000000175e-01 1.600845000000000073e+00 -3.106450000000000045e-01 3.665700000000000069e-01 -7.145319999999999450e-01 1.544069999999999887e-01 8.481819999999999915e-01 -4.476930000000000076e-01 -9.708750000000000435e-01 -1.071228999999999987e+00 -2.217792999999999903e+00 4.746810000000000196e-01 -5.066699999999999676e-02 2.454689999999999928e-01 1.169580000000000064e+00 -2.031266000000000016e+00 7.724640000000000395e-01 1.297271000000000063e+00 4.203729999999999967e-01 -1.123240000000000016e+00 -5.923939999999999761e-01 -2.139310000000000100e-01 -7.262520000000000087e-01 -1.619766000000000039e+00 -2.766262999999999916e+00 -2.973970000000000224e-01 3.297849999999999948e-01 8.778040000000000287e-01 1.249819999999999959e-01 6.082800000000000012e-02 5.787120000000000042e-01 -5.876059999999999617e-01 1.971238999999999963e+00 -1.595469999999999944e-01 -1.359493999999999980e+00 4.826190000000000202e-01 1.881420000000000037e-01 2.375559999999999894e-01 -5.665780000000000260e-01 6.401590000000000336e-01 -1.327285000000000048e+00 5.845510000000000428e-01 1.189759999999999929e+00 -7.178149999999999809e-01 4.110490999999999673e+00 -1.750231000000000092e+00 2.793769999999999865e-01 9.098359999999999781e-01 -1.285530000000000062e+00 7.846570000000000489e-01 -6.121229999999999727e-01 4.787620000000000209e-01 -1.466570000000000096e-01 2.856761000000000106e+00 1.579711000000000087e+00 2.587400000000000255e-01 1.265011000000000108e+00 -6.577700000000000213e-02 -3.209899999999999975e-01 1.092832000000000026e+00 -1.941070000000000018e-01 3.594930000000000070e-01 9.438499999999999668e-01 9.815549999999999553e-01 -8.957450000000000134e-01 -1.147232999999999947e+00 -2.951600000000000057e-02 2.598345999999999822e+00 -1.119067999999999952e+00 -2.479830999999999896e+00 1.279544000000000015e+00 1.030963999999999992e+00 -1.402698000000000000e+00 -1.191165999999999947e+00
-2.375210000000000099e-01 -1.340562999999999949e+00 -1.104897999999999936e+00 2.494698000000000082e+00 -1.551080999999999932e+00 3.983559999999999879e-01 -1.004070000000000018e+00 -4.712350000000000150e-01 2.719917000000000140e+00 -1.564964000000000022e+00 4.931682999999999595e+00 -1.431858000000000075e+00 -2.746224000000000220e+00 1.827366000000000046e+00 -1.550779999999999936e-01 -1.881788999999999934e+00 1.761009000000000047e+00 1.536683000000000021e+00 -1.741533999999999915e+00 -5.190719999999999779e-01 2.380192999999999781e+00 1.192272999999999916e+00 -1.283222000000000085e+00 1.809007000000000032e+00 1.701350000000000084e-01 6.352170000000000316e-01 1.029869999999999952e-01 3.692436999999999969e+00 -4.805566999999999922e+00 8.328820000000000112e-01 -2.322150000000000047e-01 -5.938139999999999530e-01 -4.905909999999999993e-01 4.589659999999999851e-01 5.647780000000000022e-01 1.507603000000000026e+00 1.606854000000000005e+00 1.629494999999999916e+00 -1.100246999999999975e+00 1.863221000000000016e+00 9.351709999999999745e-01 7.418449999999999767e-01 -6.004299999999999915e-02 1.002212000000000103e+00 6.073979999999999935e-01 9.937740000000000462e-01 8.603410000000000224e-01 -1.899649999999999950e-01 3.234009999999999940e-01 -2.008330000000000115e-01 1.433609999999999884e-01 -5.449880000000000280e-01 -3.763046000000000113e+00 1.203816999999999915e+00 2.759363000000000010e+00 2.106028999999999929e+00 3.019918000000000102e+00 4.650750000000000162e-01 1.696134999999999948e+00 4.454569999999999919e-01 -8.089229999999999476e-01 4.960010000000000252e-01 1.515829999999999955e-01 6.112980000000000080e-01 -1.387416999999999900e+00 -3.188670000000000115e-01 2.353069999999999884e-01 1.125812999999999953e+00 -1.647863999999999995e+00 -1.628360999999999947e+00 3.016685999999999979e+00 1.823728000000000016e+00 5.081999999999999851e-01 7.990049999999999653e-01 2.567789999999999795e-01 -2.749350999999999878e+00 1.651083999999999996e+00 7.403999999999999991e-03 -9.515999999999999459e-02 -6.853449999999999820e-01 6.142600000000000282e-01 -1.113958999999999921e+00 8.284949999999999815e-01 -3.325999999999999963e-03 1.587490000000000068e+00 1.232990000000000058e-01 1.796729999999999994e-01 -2.024910000000000043e-01 -1.112902999999999976e+00 9.670600000000000307e-01 2.511446999999999985e+00 8.503079999999999528e-01 -2.421749999999999847e+00 4.806300000000000017e-01 1.099361999999999950e+00 -4.447599999999999887e-01 1.394754000000000049e+00 5.968569999999999709e-01 -2.133338000000000179e+00 8.503220000000000223e-01 1.192380999999999913e+00 2.461220000000000074e-01 6.727180000000000382e-01 -3.261121000000000159e+00 -8.084500000000000020e-01 -1.006899999999999983e-02 -7.050039999999999640e-01 -7.530879999999999797e-01 6.727600000000000247e-01 -2.264589999999999936e-01 5.415440000000000254e-01 -8.276040000000000063e-01 1.362978999999999941e+00 9.994619999999999616e-01 -7.956220000000000514e-01 1.564996999999999971e+00 -2.278870000000000062e-01 -2.747120000000000117e-01 -8.219290000000000207e-01 3.580089000000000077e+00 -1.694156999999999913e+00 -6.092140000000000333e-01 -2.437870999999999899e+00 -8.255519999999999525e-01 -7.227710000000000523e-01 2.051101000000000063e+00 1.350036999999999932e+00 -1.667454999999999909e+00 -1.555930000000000091e-01 -9.873830000000000107e-01 -7.484399999999999942e-01 -1.273440000000000127e-01 1.407883999999999913e+00 2.029161999999999910e+00 1.085201000000000082e+00 -2.699679999999999858e-01 -1.991673999999999944e+00 -8.355310000000000237e-01 -1.742888999999999911e+00 -1.601617000000000068e+00 -6.861100000000000532e-02 7.371459999999999679e-01 4.649400000000000199e-01 -4.495040000000000147e-01 1.923110000000000097e-01 -5.386680000000000357e-01 -4.644269999999999787e-01 -1.336239999999999928e-01 -1.553650000000000031e-01 9.689689999999999692e-01 -3.721550000000000136e-01 2.009350000000000025e-01 -8.847800000000000109e-02 -1.159813999999999901e+00 -1.120908999999999933e+00 -1.715082999999999913e+00 -4.214600000000000013e-01 9.441479999999999873e-01 -5.811450000000000227e-01 9.476700000000000401e-02 9.684700000000000530e-01 -1.221885000000000110e+00 -1.889140999999999959e+00 -2.634878000000000053e+00 -3.071289999999999853e+00 -5.912230000000000540e-01 4.140789999999999749e-01 -2.770893000000000050e+00 2.033218999999999888e+00 -7.350219999999999532e-01 -2.856179999999999830e-01 -1.403820999999999986e+00 1.017241000000000062e+00 -1.402226999999999890e+00 -1.126562000000000063e+00 4.238049999999999873e-01 -2.137419999999999876e-01 -2.001902999999999988e+00 3.443039999999999989e-01 -7.283840000000000314e-01 9.301199999999999746e-02 -1.742110000000000047e-01 1.675409999999999955e-01 -8.779499999999999804e-02 -2.816850000000000187e-01 2.365909999999999958e-01 6.653250000000000552e-01 8.468599999999999461e-01 3.367180000000000173e-01 -9.931590000000000140e-01 4.972559999999999758e-01 -1.744709999999999872e-01 -9.223800000000000054e-02 4.496080000000000076e-01 6.829410000000000203e-01 -1.925850000000000062e-01 -1.079531999999999936e+00 -4.998099999999999765e-02 -4.314509999999999734e-01 8.471950000000000314e-01 -8.687000000000000277e-02 1.173971000000000098e+00 5.090559999999999530e-01 9.343080000000000274e-01 -4.373810999999999893e+00 1.496860999999999997e+00 2.804856000000000016e+00 1.819752999999999954e+00 1.185508000000000006e+00 -2.593427000000000149e+00 4.526040000000000063e-01 -2.751270000000000104e-01 -1.304165000000000019e+00 -7.334300000000000264e-01 -1.174291999999999891e+00 4.985200000000000048e-02 9.376839999999999620e-01 -8.766300000000000481e-02 -6.250369999999999537e-01 5.538419999999999455e-01 -1.392384999999999984e+00 -2.286469999999999891e-01 -1.184326999999999908e+00 9.874840000000000284e-01 -1.869600000000000081e-02 -6.254100000000000215e-01 -1.153219999999999912e+00 7.388590000000000435e-01 1.471349999999999880e-01 1.624535000000000062e+00 -1.760401000000000105e+00 7.330200000000000604e-02 1.138088999999999906e+00 -7.490160000000000151e-01 1.378949999999999898e+00 -2.792979999999999907e-01 6.215460000000000429e-01 1.261964000000000086e+00 -8.872160000000000046e-01 -9.331739999999999480e-01 -1.244340000000000029e-01 -7.037269999999999914e-01 2.254729000000000205e+00 2.132956000000000074e+00 1.157000000000000042e-03 -1.444132999999999889e+00 -7.103040000000000465e-01 -6.603339999999999765e-01 1.427799000000000040e+00 2.198720000000000119e-01 6.163910000000000222e-01 -1.218148000000000009e+00 1.208212000000000064e+00 -4.174240000000000173e-01 8.788150000000000128e-01 -2.179834000000000049e+00 9.071489999999999831e-01 4.033959999999999768e-01 1.204762000000000111e+00 -2.590390000000000192e-01 8.372429999999999595e-01 6.344800000000000439e-01 -6.723999999999999942e-03 9.568600000000000438e-01 -8.660949999999999482e-01 -9.414829999999999588e-01 -1.006215999999999999e+00 1.897162000000000015e+00 2.969700000000000117e-01 -6.154190000000000493e-01 -6.845339999999999758e-01 -1.098230000000000040e-01 -1.437430000000000097e-01 2.380760000000000098e-01 -2.266700000000000104e-01 -6.154929999999999568e-01 6.341989999999999572e-01 -1.814799000000000051e+00 -1.839812000000000003e+00 -1.428654000000000091e+00 -3.310339999999999949e-01 8.918570000000000109e-01 -2.404380000000000128e-01 -3.357593000000000050e+00 1.101339999999999958e-01
1.105817999999999968e+00 -1.134914999999999896e+00 1.278153000000000095e+00 1.892198000000000047e+00 -8.438379999999999770e-01 -2.349102999999999941e+00 -1.918023000000000033e+00 -1.043004000000000042e+00 -1.450037000000000020e+00 -2.219219999999999970e+00 -2.392828999999999873e+00 1.796953000000000022e+00 1.100128999999999913e+00 -1.627637000000000000e+00 2.560294999999999987e+00 -1.286184999999999912e+00 2.293057000000000123e+00 -2.130050999999999917e+00 3.189102000000000103e+00 -1.625494999999999912e+00 -3.732770000000000254e-01 -2.192584999999999784e+00 -3.637199999999999989e+00 -2.419580999999999982e+00 5.188099999999999656e-02 2.451359999999999928e-01 -1.987810000000000132e-01 -9.679780000000000051e-01 1.920080999999999927e+00 -1.421248999999999985e+00 1.242683999999999900e+00 -1.842392000000000030e+00 3.433660000000000045e-01 1.852552999999999894e+00 -3.135369999999999990e+00 3.622029999999999972e-01 2.836863999999999830e+00 -1.851517999999999997e+00 6.150689999999999769e-01 7.887410000000000254e-01 -1.505681000000000047e+00 1.098033999999999955e+00 -1.253385999999999889e+00 6.440059999999999674e-01 -2.343315000000000037e+00 9.135170000000000234e-01 1.988892000000000104e+00 -1.152879999999999905e+00 1.974321999999999910e+00 9.613129999999999731e-01 3.730080000000000062e-01 4.499799999999999911e-01 6.205880000000000285e-01 -2.017955999999999861e+00 -6.942760000000000042e-01 3.818989999999999885e-01 5.960530000000000550e-01 9.681520000000000126e-01 -1.644994999999999985e+00 -5.644719999999999738e-01 2.375079999999999969e-01 -1.473111000000000059e+00 -2.168023999999999951e+00 2.160130000000000106e+00 6.535699999999999843e-02 1.253433000000000019e+00 -1.788283999999999985e+00 2.154246000000000105e+00 -2.862649999999999917e-01 -2.903499999999999970e-01 -6.038240000000000274e-01 -1.245792000000000010e+00 -4.476649999999999796e-01 7.264450000000000074e-01 -2.717985000000000095e+00 -1.888816000000000050e+00 1.848190999999999917e+00 1.135663000000000089e+00 -3.722079999999999833e-01 9.244830000000000547e-01 9.039549999999999530e-01 -7.944689999999999808e-01 -5.371110000000000051e-01 -6.100139999999999452e-01 -1.642425000000000024e+00 -2.833604999999999929e+00 1.757536999999999905e+00 1.170363999999999960e+00 2.351639000000000035e+00 5.637299999999999534e-01 -1.978768000000000082e+00 3.633154999999999912e+00 1.368041000000000063e+00 1.562209999999999988e-01 -1.941309999999999980e-01 -1.229031999999999902e+00 -2.266091999999999995e+00 4.368600000000000261e-02 -2.398959000000000064e+00 1.769020000000000037e-01 1.121442000000000050e+00 7.100319999999999965e-01 -1.002742000000000022e+00 2.538610999999999951e+00 -3.079642000000000213e+00 1.173600000000000060e-01 1.738164000000000042e+00 -1.770339999999999969e-01 -1.060888000000000053e+00 -8.773899999999999755e-02 1.037876000000000021e+00 2.175158000000000147e+00 5.587189999999999657e-01 9.078540000000000498e-01 1.995408000000000071e+00 5.236099999999999782e-02 1.056878999999999902e+00 -6.276890000000000525e-01 -5.157549999999999635e-01 -1.613789999999999947e-01 1.688552000000000053e+00 2.679266999999999843e+00 -1.856981999999999911e+00 5.629300000000000415e-01 1.351302999999999921e+00 4.047819999999999752e-01 -2.093809999999999949e+00 -1.541956000000000104e+00 -1.027452000000000032e+00 -1.046480000000000077e+00 1.052640999999999938e+00 1.815542999999999907e+00 4.767999999999999669e-03 -7.271959999999999535e-01 -7.133279999999999621e-01 4.170659999999999923e-01 -1.242486999999999897e+00 1.929530000000000134e-01 1.383100999999999914e+00 2.982790000000000163e-01 -8.495329999999999826e-01 -1.413470000000000004e+00 -1.428168000000000104e+00 -2.575670000000000126e+00 -5.081769999999999898e-01 -1.209340000000000082e+00 -2.497828000000000159e+00 -5.232900000000000051e-02 -8.942400000000000349e-01 2.300669999999999937e-01 2.893189999999999928e-01 -3.917900000000000271e-01 1.668107000000000006e+00 -9.471829999999999972e-01 2.352707000000000104e+00 1.693086000000000091e+00 -8.463209999999999900e-01 -1.457262000000000057e+00 -9.827400000000000024e-02 -2.789150000000000240e-01 7.419419999999999904e-01 3.214389999999999747e-01 1.463180000000000036e-01 -4.997610000000000108e-01 1.839800000000000046e-01 1.295498000000000038e+00 1.656460999999999961e+00 -1.562623000000000095e+00 -7.172640000000000127e-01 -4.759599999999999942e-02 -1.339050999999999991e+00 -1.343250000000000000e-01 -1.015022000000000091e+00 -9.826240000000000530e-01 -1.344203000000000037e+00 -7.834799999999999542e-01 -1.322680999999999996e+00 2.441939000000000082e+00 1.455440000000000067e-01 -4.096500000000000141e-02 -3.415039999999999742e-01 -8.646509999999999474e-01 -1.164889000000000063e+00 3.253673000000000037e+00 5.842549999999999688e-01 5.132240000000000357e+00 2.685649999999999982e-01 2.887859999999999872e-01 9.018040000000000500e-01 -2.767921999999999993e+00 1.392719000000000040e+00 -1.362241999999999953e+00 -8.160570000000000324e-01 1.546049999999999924e-01 1.045182000000000055e+00 -1.074878999999999918e+00 1.018600000000000061e-02 9.393519999999999648e-01 -1.896368000000000054e+00 1.616157000000000066e+00 2.770112999999999825e+00 -2.462360000000000104e-01 7.176099999999999701e-01 -1.486391000000000018e+00 4.075399999999999856e-02 -6.923920000000000075e-01 -4.892549999999999955e-01 3.410759999999999903e-01 -2.496539999999999870e-01 3.327180000000000137e-01 5.490629999999999677e-01 -5.175440000000000040e-01 4.852469999999999839e-01 5.571810000000000374e-01 -5.219909999999999828e-01 -1.982925000000000049e+00 -1.932270000000000099e-01 -2.286741000000000135e+00 2.558257999999999921e+00 1.136965999999999921e+00 1.610497999999999985e+00 1.299074000000000062e+00 -1.110143000000000102e+00 -3.316549999999999776e-01 2.604703999999999908e+00 3.486819999999999919e-01 -1.563403000000000098e+00 4.634409999999999918e-01 -1.912435000000000107e+00 -7.671989999999999643e-01 -4.072709999999999941e-01 8.454089999999999661e-01 -3.310170000000000057e-01 -1.025195999999999996e+00 -1.452102999999999922e+00 1.457548999999999984e+00 -2.059968000000000021e+00 1.314432999999999963e+00 -5.908259999999999623e-01 -1.078656999999999977e+00 3.141999999999999793e-01 -2.492030000000000078e-01 1.110397000000000078e+00 4.943569999999999909e-01 -4.875550000000000161e-01 -1.089559999999999973e-01 1.029144999999999976e+00 8.949390000000000400e-01 2.882160000000000277e-01 -6.851669999999999705e-01 2.533469999999999889e-01 -6.357679999999999998e-01 -6.887170000000000236e-01 -1.058259999999999978e+00 2.150754000000000055e+00 -7.199459999999999749e-01 7.523000000000000173e-03 6.215530000000000221e-01 7.566460000000000408e-01 -3.849029999999999951e-01 -3.722579999999999778e-01 1.907556999999999947e+00 7.357740000000000391e-01 -2.005440000000000000e-01 4.259979999999999878e-01 -4.728330000000000033e-01 2.038942000000000032e+00 3.085510000000000197e-01 2.237099999999999922e-01 8.376860000000000417e-01 2.112747000000000153e+00 2.638545999999999836e+00 9.058960000000000345e-01 -7.366089999999999582e-01 4.015059999999999740e-01 1.419375000000000053e+00 5.893859999999999655e-01 1.600503999999999927e+00 2.682109000000000076e+00 -1.564286000000000065e+00 5.462999999999999801e-02 7.708190000000000319e-01 -1.098748000000000058e+00 -5.941809999999999592e-01 1.501859999999999862e-01