-1.245384999999999964e+00 -2.568086999999999787e+00 5.164330000000000309e-01 3.849569999999999936e-01 -3.313686000000000131e+00 -1.005675000000000097e+00 -2.459989999999999954e-01 -3.956109999999999904e-01 -3.491500000000000159e-01 1.036602999999999941e+00 -4.033799999999999886e-02 2.175724999999999909e+00 1.022898000000000085e+00 1.230391000000000012e+00 -1.221373999999999960e+00 9.636559999999999571e-01 -2.596859999999999724e-01 5.029000000000000137e-01 3.294910999999999923e+00 -2.066256999999999788e+00 -1.700039999999999996e+00 -7.544399999999999717e-02 -9.582659999999999512e-01 1.651980999999999922e+00 -1.450525999999999982e+00 1.038588000000000067e+00 -1.000226000000000059e+00 1.275884000000000018e+00 -6.666509999999999936e-01 1.293816999999999995e+00 -9.896939999999999626e-01 7.219259999999999566e-01 -1.756694999999999895e+00 1.117941000000000074e+00 -1.357364000000000015e+00 -1.212259999999999893e+00 -1.499797000000000047e+00 -1.321800000000000058e-02 3.837099999999999955e-01 -2.608999999999999861e-02 5.053689999999999571e-01 7.034829999999999695e-01 2.208149000000000139e+00 1.854908000000000001e+00 3.730045000000000055e+00 -3.706186000000000202e+00 -2.075925999999999938e+00 6.101550000000000029e-01 -5.053689999999999571e-01 3.654479999999999951e-01 5.819069999999999521e-01 8.203529999999999989e-01 1.033816000000000068e+00 9.131219999999999892e-01 -4.442630000000000190e-01 4.854120000000000101e-01 8.725439999999999863e-01 -4.414589999999999903e-01 -1.111780999999999908e+00 -9.009799999999999753e-02 1.797382000000000035e+00 -2.475569999999999993e-01 -3.895839000000000052e+00 -2.181559999999999888e-01 5.493500000000000050e-01 -2.023510000000000031e-01 4.897349999999999759e-01 -7.182030000000000358e-01 -1.591911999999999994e+00 -8.368160000000000043e-01 -5.908189999999999831e-01 -1.216255000000000086e+00 1.383294999999999941e+00 -1.097213999999999912e+00 -5.966799999999999882e-02 -4.105079999999999840e-01 -1.014693000000000067e+00 -2.146519000000000066e+00 1.112889999999999990e-01 5.968679999999999541e-01 4.485879999999999868e-01 -1.294834000000000040e+00 -1.436679999999999902e-01 -1.212069999999999981e+00 1.109896999999999911e+00 -2.272974000000000050e+00 -5.362599999999999589e-01 -3.066650000000000209e-01 1.553000000000000040e-02 1.491322000000000036e+00 -2.294972000000000012e+00 -8.249610000000000554e-01 -2.792898999999999798e+00 -1.444719999999999893e-01 -6.217669999999999586e-01 2.712225999999999804e+00 -9.746860000000000523e-01 2.335812999999999917e+00 1.339331000000000049e+00 -1.202552999999999983e+00 2.756337999999999955e+00 3.719439999999999968e-01 8.366869999999999585e-01 -5.115800000000000208e-02 5.556480000000000308e-01 4.168109999999999871e-01 -2.665359999999999951e-01 -5.344139999999999446e-01 -1.260853000000000002e+00 -7.199130000000000251e-01 -4.976809999999999845e-01 1.216137000000000024e+00 3.242070000000000229e-01 -6.641540000000000221e-01 -7.191269999999999607e-01 1.864439999999999986e-01 -9.337900000000000367e-02 -6.399059999999999748e-01 7.184890000000000443e-01 -3.911120000000000152e-01 1.167580000000000007e-01 -8.377390000000000114e-01 -9.103919999999999790e-01 -5.676499999999999879e-01 -1.294013000000000080e+00 -2.167969999999999897e-01 -1.494585000000000052e+00 2.788829999999999920e-01 1.154779999999999918e+00 9.204620000000000024e-01 1.612843999999999944e+00 -3.553290000000000060e-01 -2.498519999999999908e-01 -1.576359000000000066e+00 7.431280000000000108e-01 -1.726148000000000016e+00 9.357600000000000362e-01 -1.645280000000000076e-01 1.319469999999999921e+00 1.402743000000000073e+00 -1.545533000000000046e+00 -2.274153000000000091e+00 4.508739999999999970e-01 -2.576570000000000249e-01 8.505059999999999842e-01 1.176750000000000018e-01 -4.977239999999999998e-01 9.316750000000000309e-01 -1.487125000000000030e+00 -1.161826000000000025e+00 -1.366290999999999922e+00 6.574929999999999941e-01 -8.493290000000000006e-01 -3.813230000000000230e-01 8.905359999999999943e-01 6.068040000000000100e-01 -7.546199999999999575e-01 8.509449999999999514e-01 2.664400000000000102e-02 -2.062657999999999880e+00 4.540319999999999911e-01 1.370854999999999935e+00 1.002869999999999928e+00 3.913400000000000212e-02 6.180630000000000290e-01 6.093730000000000535e-01 -6.248529999999999918e-01 1.617471000000000103e+00 1.255918000000000090e+00 5.515419999999999767e-01 -2.148500000000000063e-02 1.804769000000000068e+00 7.744889999999999830e-01 1.320526000000000089e+00 -8.773499999999999632e-01 1.620711000000000013e+00 -1.013138000000000094e+00 -5.800210000000000088e-01 -9.058549999999999658e-01 2.902060000000000195e-01 4.686599999999999794e-02 4.522039999999999949e-01 -8.442680000000000184e-01 -1.716639999999999944e+00 -7.013200000000000545e-01 1.504858999999999947e+00 5.651659999999999462e-01 9.425160000000000204e-01 1.289589999999999903e-01 6.887029999999999541e-01 4.666770000000000085e-01 1.469166999999999890e+00 6.934240000000000403e-01 1.081625999999999976e+00 -1.993473999999999968e+00 8.421009999999999884e-01 -3.095899999999999763e-01 1.837588999999999917e+00 5.919820000000000082e-01 2.353550000000000086e-01 -2.729400000000000159e-01 -9.515649999999999942e-01 -8.047800000000000509e-01 -2.376310000000000089e-01 -1.937190000000000023e-01 -1.105809999999999960e+00 3.915640000000000231e-01 5.590789999999999926e-01 -6.669220000000000148e-01 -5.523460000000000036e-01 -4.417470000000000008e-01 -5.064100000000000268e-01 -5.431979999999999587e-01 -5.036220000000000141e-01 -2.908330000000000082e-01 1.160778000000000088e+00 -1.196339000000000041e+00 9.839120000000000088e-01 1.051528999999999936e+00 -5.569760000000000266e-01 8.621140000000000470e-01 9.923910000000000231e-01 1.090154000000000067e+00 7.664590000000000014e-01 -1.193508999999999931e+00 1.850219999999999976e+00 -6.728690000000000504e-01 -1.032399000000000067e+00 -3.085590000000000277e-01 -2.312619999999999953e-01 1.240570000000000006e-01 -9.680149999999999588e-01 -6.898429999999999840e-01 -1.393086000000000046e+00 -9.823380000000000445e-01 1.263725999999999905e+00 6.386819999999999720e-01 3.091360000000000219e-01 1.775780000000000136e-01 9.899199999999999666e-02 2.349970000000000114e-01 1.295374999999999943e+00 1.495450000000000113e-01 -6.280099999999999572e-02 1.067649999999999988e+00 -5.348690000000000389e-01 1.499209999999999987e-01 -1.102821999999999969e+00 3.448550000000000226e-01 -4.209450000000000136e-01 1.129057999999999895e+00 -3.089990000000000236e-01 -1.735200000000000076e-01 1.534089999999999954e+00 1.604576000000000002e+00 7.536249999999999893e-01 -6.307000000000000106e-03 -3.016420000000000212e-01 -9.706329999999999680e-01 4.573499999999999788e-02 -8.103000000000000827e-03 1.430887999999999938e+00 -2.102700000000000055e-02 -9.104010000000000158e-01 -9.545800000000000118e-02 1.038666000000000089e+00 1.797153000000000000e+00 6.966320000000000290e-01 -8.163999999999999382e-03 -7.919620000000000548e-01 1.461087000000000025e+00 1.719060000000000032e+00 1.099434000000000022e+00 -6.158740000000000325e-01 -1.448746000000000089e+00 -2.437940000000000107e-01 9.875660000000000549e-01 -1.125394999999999923e+00 -8.569750000000000423e-01 1.507138000000000089e+00 -5.798680000000000501e-01 -8.241420000000000412e-01 6.700930000000000497e-01 -2.411400000000000002e-02 1.010016000000000025e+00
-7.634720000000000395e-01 1.239266999999999896e+00 2.497981999999999925e+00 9.926899999999999613e-01 -5.045450000000000212e-01 2.026555999999999802e+00 -8.094900000000000428e-01 3.178799999999999959e-01 1.044167999999999985e+00 -1.735707000000000111e+00 2.105196999999999985e+00 6.291320000000000245e-01 -1.079212999999999978e+00 -2.642399999999999749e-01 -1.482712000000000030e+00 -4.003689999999999749e-01 -2.429968999999999824e+00 -1.317600000000000021e-02 -3.094740999999999964e+00 -4.179700000000000082e-01 7.826330000000000231e-01 -1.996931000000000012e+00 -2.255986000000000047e+00 2.008773999999999837e+00 4.379069000000000322e+00 -5.193640000000000478e-01 -1.785368999999999984e+00 3.535249999999999782e-01 -6.959870000000000223e-01 2.985053000000000178e+00 1.729230000000000045e+00 -4.325169999999999848e-01 -1.602570000000000050e+00 8.862879999999999647e-01 2.320679999999999854e+00 6.774120000000000141e-01 -1.584873999999999894e+00 -1.173713999999999924e+00 -2.179756999999999945e+00 -1.594138999999999973e+00 7.941350000000000353e-01 -2.763329999999999953e-01 -2.164613000000000120e+00 -1.504439999999999944e-01 -3.048350000000000226e-01 -7.936389999999999834e-01 2.296439999999999870e-01 -4.452240000000000086e-01 -4.148620000000000085e-01 -7.699859999999999483e-01 2.123711999999999822e+00 -3.770340000000000025e+00 -1.748934999999999906e+00 1.480761999999999912e+00 2.388314999999999966e+00 1.863720000000000099e-01 -7.393290000000000139e-01 -1.068149000000000015e+00 4.415592000000000183e+00 1.780753000000000030e+00 -1.390152999999999972e+00 -6.116960000000000175e-01 -6.653170000000000472e-01 6.538180000000000103e-01 8.921919999999999851e-01 -6.103730000000000544e-01 -5.813009999999999566e-01 -2.881099999999999772e-01 1.631601000000000079e+00 -1.425472000000000072e+00 7.411180000000000545e-01 -8.905629999999999935e-01 -2.412449999999999872e-01 -4.500460999999999601e+00 -2.439365000000000006e+00 -1.572343000000000046e+00 5.538699999999999735e-01 -4.742540000000000089e-01 2.392888999999999822e+00 -6.121180000000000510e-01 -1.088646000000000003e+00 1.458212000000000064e+00 5.813639999999999919e-01 -1.178314000000000084e+00 -1.254177000000000097e+00 1.644384000000000068e+00 7.075700000000000323e-01 -3.116500000000000173e-02 1.320942000000000061e+00 4.830659999999999954e-01 -6.624259999999999593e-01 6.115479999999999805e-01 1.909372999999999987e+00 -9.356069999999999665e-01 3.833400000000000002e-02 1.051075999999999899e+00 -1.606985000000000108e+00 2.655799999999999828e-02 6.663489999999999691e-01 1.463770999999999933e+00 -4.940769999999999884e-01 -1.011848999999999998e+00 -1.441387999999999892e+00 1.791269000000000000e+00 -2.781540000000000123e-01 -1.057310000000000055e-01 1.258774000000000060e+00 -8.976099999999999357e-02 1.313479999999999981e+00 -1.768127999999999922e+00 3.228190000000000226e-01 1.269373000000000085e+00 4.051159999999999761e-01 1.311968000000000023e+00 2.916065999999999825e+00 -4.587450000000000139e-01 5.420540000000000358e-01 -2.618478999999999779e+00 -2.963660000000000183e-01 5.195530000000000426e-01 1.216091999999999951e+00 4.666890000000000205e-01 -1.272491000000000039e+00 -5.127329999999999943e-01 1.175292999999999921e+00 -1.986839000000000022e+00 -1.043514000000000053e+00 -2.361028999999999822e+00 6.463889999999999914e-01 2.584280999999999828e+00 2.059579999999999966e+00 -1.947840999999999934e+00 6.479019999999999779e-01 -1.175893000000000077e+00 -3.664999999999999925e-01 -3.549030000000000240e-01 2.244530000000000136e-01 -9.472000000000000419e-01 9.993870000000000253e-01 -1.783939999999999970e-01 -1.780426999999999982e+00 -2.334166999999999881e+00 1.354014000000000051e+00 -1.827159999999999895e-01 7.105300000000000504e-02 5.243409999999999460e-01 -1.326071999999999917e+00 1.105296000000000056e+00 -3.377205000000000013e+00 -1.872241000000000044e+00 -6.349690000000000056e-01 -3.726369999999999960e-01 2.114756999999999998e+00 -6.641540000000000221e-01 9.038220000000000143e-01 3.036490000000000133e+00 -6.631899999999999462e-01 6.943190000000000195e-01 1.215113000000000110e+00 5.526180000000000536e-01 -5.549110000000000431e-01 -3.638799999999999812e-01 2.529359999999999942e-01 -1.878799999999999915e-01 -4.614820000000000033e-01 -2.542111999999999927e+00 1.463907000000000069e+00 -1.859402999999999917e+00 2.605414999999999814e+00 2.400492999999999988e+00 1.976410000000000111e-01 -2.785579999999999723e-01 -1.817040999999999906e+00 1.791500000000000037e-01 1.494149999999999923e-01 1.127942000000000000e+00 1.411172000000000093e+00 -9.684399999999999953e-02 4.505879999999999885e-01 6.900499999999999690e-02 -7.376890000000000391e-01 9.641039999999999610e-01 -7.687800000000000189e-01 7.741550000000000376e-01 -6.962400000000000533e-02 -1.801047999999999982e+00 -4.094510000000000094e-01 1.828889999999999960e-01 1.164317000000000046e+00 7.504520000000000080e-01 6.855029999999999735e-01 1.075320000000000054e+00 4.630690000000000084e-01 8.354789999999999717e-01 -7.295620000000000438e-01 -6.046270000000000255e-01 2.580852999999999842e+00 -2.110898000000000163e+00 3.559899999999999731e-01 -1.818359999999999976e+00 1.325001000000000095e+00 3.506619999999999737e-01 -4.819280000000000230e-01 2.317873000000000072e+00 -1.745490000000000097e-01 -1.086440000000000045e-01 -1.060179999999999900e+00 9.316560000000000397e-01 -1.052586000000000022e+00 1.005165000000000086e+00 -1.358783000000000074e+00 -1.829978000000000105e+00 4.800780000000000047e-01 -1.423529999999999962e+00 -2.320530000000000093e-01 -1.295169999999999932e-01 3.693359999999999976e-01 1.769899999999999946e-02 6.768269999999999564e-01 3.732261999999999968e+00 1.500987999999999989e+00 -9.317100000000000382e-01 8.146430000000000060e-01 1.131701000000000068e+00 -2.144117000000000051e+00 2.153585000000000083e+00 2.545379000000000058e+00 -1.033520999999999912e+00 -1.632738000000000023e+00 5.214590000000000058e-01 2.094060000000000088e-01 -1.464331999999999967e+00 2.037719000000000058e+00 2.051510000000000000e-01 1.364454999999999973e+00 1.523380000000000012e-01 -1.467399999999999954e-02 -4.805440000000000267e-01 -2.000161999999999995e+00 -7.052319999999999700e-01 1.496744000000000074e+00 1.337333000000000105e+00 8.185099999999999321e-02 -1.740199999999999969e+00 -3.719843000000000011e+00 1.116411999999999960e+00 -3.414960000000000218e-01 -8.621240000000000014e-01 -6.739579999999999460e-01 1.014658999999999978e+00 -2.209730000000000028e-01 1.569209000000000076e+00 -5.415539999999999798e-01 1.346972999999999976e+00 -3.754560000000000120e-01 2.046552999999999845e+00 2.543210000000000193e-01 1.674751000000000101e+00 8.725260000000000238e-01 1.240062999999999915e+00 -1.332089999999999996e+00 -3.464050000000000185e-01 3.200520000000000032e-01 -1.590872999999999982e+00 1.720844000000000040e+00 -2.378725000000000200e+00 -5.664909999999999668e-01 2.734453999999999940e+00 -5.026190000000000380e-01 -1.285365000000000091e+00 -6.224699999999999678e-02 -7.392739999999999867e-01 1.841518999999999906e+00 2.702640000000000042e-01 -1.959448000000000079e+00 2.625120000000000231e-01 6.536480000000000068e-01 2.049129999999999896e+00 -1.490930000000000033e-01 6.564820000000000100e-01 -3.785683999999999827e+00 -1.831058000000000074e+00 -3.272559999999999913e-01 -1.843286999999999898e+00 9.914299999999999502e-02
7.371720000000000494e-01 2.438041000000000125e+00 1.189029999999999948e-01 7.862409999999999677e-01 1.736104000000000092e+00 4.965840000000000254e-01 2.066828999999999805e+00 1.623137000000000052e+00 -5.497450000000000392e-01 3.201999999999999985e-03 -2.156710000000000016e-01 -7.700989999999999780e-01 1.449859999999999927e+00 1.069288000000000016e+00 9.207379999999999454e-01 2.367335000000000189e+00 3.305669999999999997e-01 2.032847999999999988e+00 2.324018999999999835e+00 3.384936000000000167e+00 -2.169061000000000128e+00 -1.527168000000000081e+00 -1.421010000000000106e+00 2.266529999999999934e-01 -2.458181999999999867e+00 -6.778650000000000508e-01 3.462375000000000203e+00 4.347639999999999838e-01 1.547457000000000082e+00 1.470622000000000096e+00 -1.280815999999999955e+00 -2.701376999999999917e+00 -1.911852000000000107e+00 -1.271876999999999924e+00 -2.080001999999999907e+00 7.283330000000000082e-01 6.110000000000000153e-02 -1.485672000000000104e+00 -1.536585000000000090e+00 -1.582400000000000126e-02 -2.260998999999999981e+00 2.187494000000000050e+00 5.851110000000000477e-01 -6.632329999999999615e-01 -2.378540999999999794e+00 -2.872200000000000100e-02 -3.483589999999999742e-01 -3.276649999999999840e-01 -9.992929999999999868e-01 1.402609999999999912e+00 1.194155999999999995e+00 -3.569599999999999856e-02 -4.446180000000000132e-01 -3.219330000000000247e-01 -5.389150000000000329e-01 3.030999999999999840e-03 -2.267189000000000121e+00 1.013155000000000028e+00 -2.984894000000000158e+00 -1.901170000000000082e-01 -3.626599999999999963e-02 3.899949999999999806e-01 -1.257692999999999950e+00 -5.981360000000000010e-01 -1.191462000000000021e+00 7.826900000000000523e-02 -5.842629999999999768e-01 5.590330000000000021e-01 2.408389999999999809e+00 -6.371839999999999726e-01 -1.751700000000000132e-02 -1.607296000000000058e+00 2.572292000000000023e+00 8.675289999999999946e-01 5.426760000000000472e-01 1.383461999999999970e+00 -2.462905000000000122e+00 2.613500000000000267e-01 5.848510000000000097e-01 -9.692159999999999664e-01 -2.600979999999999959e-01 -7.161880000000000468e-01 4.406289999999999929e-01 2.966539000000000037e+00 -3.492580000000000129e-01 3.564799999999999969e+00 4.206710000000000171e-01 1.673640000000000128e-01 1.137029999999999985e-01 -1.521889999999999910e-01 -3.327320000000000277e-01 -1.229520000000000057e-01 -3.371471999999999802e+00 1.047876999999999947e+00 -2.087496999999999936e+00 8.848200000000000509e-02 -9.437210000000000321e-01 1.364279999999999937e+00 2.162536999999999932e+00 9.610599999999999699e-02 -1.532918000000000003e+00 -1.664686000000000110e+00 1.711330000000000073e-01 -1.622829999999999995e+00 -2.691219999999999724e-01 -1.508450000000000069e-01 -3.187900000000000178e-01 -1.224677000000000016e+00 -1.242242999999999986e+00 4.631600000000000161e-01 1.815590999999999955e+00 -1.045350000000000029e-01 5.646109999999999740e-01 -2.619203999999999866e+00 -6.667530000000000401e-01 5.355760000000000520e-01 1.301897000000000082e+00 -1.380389000000000088e+00 3.193150000000000155e-01 -1.877221999999999946e+00 -3.573513999999999857e+00 -1.326543000000000028e+00 -3.092639999999999834e-01 1.970992999999999995e+00 9.076570000000000471e-01 1.817552000000000056e+00 1.070620000000000044e-01 5.008629999999999471e-01 7.975729999999999764e-01 1.153637000000000024e+00 3.374269999999999770e-01 -8.194369999999999710e-01 1.243365999999999971e+00 2.921000000000000263e-01 4.533070000000000155e-01 -4.432074000000000069e+00 -2.905396999999999785e+00 -6.937060000000000448e-01 1.624320999999999904e+00 -4.422610000000000152e-01 1.437700000000000089e-01 -2.679429999999999867e-01 1.710102999999999929e+00 -4.364520000000000066e-01 5.639399999999999968e-02 7.849220000000000086e-01 -2.219099999999999961e-01 1.827085000000000070e+00 2.945579999999999865e-01 2.744435999999999876e+00 -7.966689999999999605e-01 1.027003000000000110e+00 -6.916679999999999495e-01 -5.596160000000000023e-01 1.077730000000000077e+00 1.696466000000000030e+00 -6.875080000000000080e-01 -7.877790000000000070e-01 -8.881449999999999623e-01 1.205535000000000023e+00 1.217619000000000007e+00 2.966293999999999986e+00 -4.593849999999999878e-01 1.811863000000000001e+00 2.931300000000000017e-01 -6.924940000000000540e-01 -2.234909999999999952e-01 -1.695079000000000002e+00 -1.286847000000000074e+00 1.510200000000000084e-02 -3.988309999999999911e-01 -3.838329999999999798e-01 -5.761709999999999887e-01 -2.293949999999999878e-01 -1.251095000000000068e+00 2.244499999999999967e-02 -1.198233000000000104e+00 -4.093740000000000157e-01 -7.871700000000000363e-01 -5.106399999999999828e-01 9.815799999999999526e-02 4.058080000000000020e-01 2.835190000000000210e-01 -9.233529999999999793e-01 -6.379519999999999635e-01 -1.224409000000000081e+00 -1.391715999999999953e+00 -1.134784999999999933e+00 1.997849999999999904e-01 5.225450000000000372e-01 3.579169999999999852e-01 4.825840000000000130e-01 5.113180000000000502e-01 -5.509570000000000300e-01 -8.263509999999999467e-01 1.111159000000000008e+00 -2.186636000000000024e+00 1.525622000000000034e+00 -7.952499999999999847e-02 1.794861000000000040e+00 6.756729999999999681e-01 1.630360999999999949e+00 -1.907278999999999947e+00 9.150899999999999590e-01 -5.511019999999999808e-01 -3.124959999999999960e-01 1.492131000000000096e+00 -2.132795000000000218e+00 5.729000000000000065e-02 5.137469999999999537e-01 4.030130000000000101e-01 1.023970000000000047e+00 -3.149219999999999797e-01 -4.992949999999999888e-01 -1.567971999999999921e+00 -7.752830000000000554e-01 -2.263920000000000099e-01 7.225279999999999481e-01 -1.049889000000000072e+00 2.218100000000000072e-01 -8.458489999999999620e-01 -1.448407999999999918e+00 7.375080000000000524e-01 1.417859999999999954e-01 6.807360000000000078e-01 1.224898000000000042e+00 6.831669999999999687e-01 -4.949879999999999836e-01 1.174930000000000002e-01 -6.558150000000000368e-01 1.852678000000000047e+00 -4.650029999999999997e-01 -5.818689999999999696e-01 5.654150000000000009e-01 5.834129999999999594e-01 -5.047139999999999960e-01 8.252000000000000654e-03 4.315430000000000099e-01 -5.559460000000000512e-01 2.034387999999999863e+00 1.431410999999999989e+00 -7.900040000000000395e-01 3.051690000000000236e-01 -4.321070000000000189e-01 5.805500000000000105e-01 -1.352430999999999939e+00 -5.831760000000000277e-01 -9.434869999999999646e-01 -2.030206000000000177e+00 -8.464199999999999502e-02 1.964120000000000088e+00 -2.380355999999999916e+00 -8.330269999999999619e-01 2.158027999999999835e+00 1.960250000000000048e-01 -7.908099999999999852e-02 1.104554999999999954e+00 -8.152700000000000502e-01 4.917579999999999729e-01 -1.394460000000000033e+00 7.458329999999999682e-01 2.254827000000000137e+00 1.741119999999999890e-01 -4.290470000000000117e-01 3.937930000000000041e-01 -1.296140000000000070e-01 -5.824900000000000216e-02 -3.764319999999999888e-01 1.701041999999999943e+00 5.728959999999999608e-01 6.745619999999999949e-01 -9.076000000000000734e-03 1.766497999999999902e+00 -4.010110000000000063e-01 9.976799999999999558e-02 6.239230000000000054e-01 -8.361290000000000111e-01 1.631958999999999937e+00 -3.548732000000000220e+00 1.011616000000000071e+00 4.227400000000000047e-01 8.028269999999999573e-01 -2.973089999999999899e-01 -3.738850000000000229e-01 -4.726770000000000138e-01
2.423128000000000171e+00 2.673179999999999890e+00 9.411799999999999333e-02 2.414016999999999857e+00 1.197422999999999904e+00 2.432755999999999919e+00 1.235152999999999945e+00 1.726693000000000033e+00 -7.785130000000000106e-01 4.474449999999999816e-01 -1.366198000000000023e+00 -1.011444999999999927e+00 8.299330000000000318e-01 -1.893351999999999924e+00 -8.739900000000000446e-01 -8.188099999999999545e-02 1.201804000000000094e+00 -1.642972000000000099e+00 1.893086999999999964e+00 3.637272999999999978e+00 -1.649494999999999933e+00 -1.181707000000000063e+00 1.617912999999999935e+00 -1.735705999999999971e+00 -1.089069999999999983e+00 -3.154818000000000122e+00 -4.309609999999999830e-01 -1.130115999999999898e+00 -2.190421999999999869e+00 9.144309999999999938e-01 -4.536299999999999777e-01 1.636495999999999951e+00 7.601520000000000499e-01 8.497740000000000293e-01 5.938900000000000290e-01 -1.762574000000000085e+00 8.915939999999999976e-01 -2.403850999999999960e+00 1.057121999999999895e+00 7.593839999999999479e-01 3.487219999999999764e-01 4.055139999999999856e-01 2.587394000000000194e+00 -1.967122000000000037e+00 -3.216270000000000184e+00 -4.152702999999999811e+00 -4.201500000000000234e-01 1.301061999999999941e+00 -2.538705999999999907e+00 7.438609999999999944e-01 -1.358160000000000034e+00 -1.604843000000000020e+00 7.037710000000000354e-01 -4.407090000000000174e-01 -1.675756000000000023e+00 2.489371999999999918e+00 1.013300000000000034e-01 1.235351000000000088e+00 -2.186659999999999993e-01 -1.697424999999999962e+00 -1.672565000000000079e+00 2.509389999999999787e+00 1.835857999999999990e+00 5.831410000000000204e-01 2.037090000000000067e+00 2.138234999999999886e+00 1.967532999999999976e+00 -5.339960000000000262e-01 1.386943999999999955e+00 -1.280362000000000000e+00 3.511553000000000146e+00 -1.196903000000000050e+00 1.921124000000000054e+00 -8.828559999999999741e-01 -1.783312000000000008e+00 4.262119999999999798e-01 3.820799999999999752e-01 1.492240000000000011e+00 -3.976390000000000202e-01 -5.074469999999999814e-01 1.236501000000000072e+00 3.770100999999999924e+00 -1.300513000000000030e+00 1.434752999999999945e+00 -1.008556000000000008e+00 -2.453053999999999846e+00 -4.078729000000000049e+00 4.771190000000000153e-01 -5.380507999999999846e+00 3.582030000000000047e+00 -2.066250000000000142e+00 4.965260000000000229e-01 4.875140000000000029e-01 2.036592999999999876e+00 9.981440000000000312e-01 -2.019249999999999934e-01 -4.658669999999999756e-01 -2.332358000000000153e+00 -3.138999000000000095e+00 -2.251806999999999892e+00 1.025765999999999956e+00 -6.098350000000000160e-01 -7.099539999999999740e-01 -1.732537999999999911e+00 -1.177440000000000042e+00 -1.417588000000000070e+00 1.319965000000000055e+00 1.555568999999999980e+00 -1.906574999999999909e+00 1.384654000000000051e+00 1.050680000000000058e+00 2.401844999999999786e+00 -1.168957000000000024e+00 1.044829000000000008e+00 -2.993900000000000033e-02 -7.429999999999999938e-01 1.085669999999999968e-01 -7.095550000000000468e-01 -1.210523000000000016e+00 2.425974000000000075e+00 9.545029999999999903e-01 9.776850000000000263e-01 -4.371979999999999755e-01 -5.359880000000000200e-01 -7.598070000000000102e-01 -4.670929999999999804e-01 1.389545999999999948e+00 -1.417643999999999904e+00 6.431000000000000605e-02 1.004759999999999959e-01 8.367120000000000113e-01 -1.989360000000000017e-01 -2.093980999999999870e+00 -6.851199999999999513e-01 1.916899999999999854e-02 -1.899699999999999944e+00 -1.183794999999999931e+00 -3.608069999999999888e-01 6.104920000000000346e-01 1.037919999999999954e-01 6.991410000000000124e-01 -2.774507999999999974e+00 2.388342000000000187e+00 -1.051549999999999985e-01 1.231730999999999909e+00 -1.612195000000000045e+00 -1.055973000000000050e+00 -6.636530000000000484e-01 1.276090000000000002e-01 -2.605919999999999903e-01 -4.115699999999999914e-02 2.970899999999999930e-02 1.617099999999999926e-01 1.547617999999999938e+00 -8.513880000000000337e-01 4.508320000000000105e-01 -2.179206000000000198e+00 1.010674999999999990e+00 -1.662428999999999935e+00 2.410852999999999913e+00 -1.969848999999999961e+00 -3.420969999999999844e-01 -1.856700000000000017e-02 6.764689999999999870e-01 -6.667640000000000233e-01 1.731929000000000052e+00 2.161554000000000197e+00 -1.566335000000000033e+00 -1.963546999999999931e+00 6.012539999999999552e-01 -3.227517999999999887e+00 3.744899999999999896e-01 -5.617320000000000091e-01 7.243099999999999539e-02 -2.177719999999999878e+00 -1.611836000000000046e+00 9.832440000000000069e-01 -8.253000000000000336e-01 -1.477865999999999902e+00 -1.708540000000000059e-01 1.680811000000000055e+00 7.087299999999999711e-01 -8.085860000000000269e-01 -9.235699999999999465e-02 -6.254809999999999537e-01 -1.625518000000000018e+00 -2.889430000000000054e-01 -5.561300000000000132e-01 1.211246999999999963e+00 9.647700000000000164e-01 1.038202999999999987e+00 1.226499000000000006e+00 1.498860999999999999e+00 1.878838999999999926e+00 -3.703154000000000057e+00 3.113859999999999961e-01 -2.233089999999999797e+00 1.727525999999999895e+00 -8.140549999999999731e-01 -2.508865000000000123e+00 1.296232999999999969e+00 5.591519999999999824e-01 3.967860000000000276e-01 -4.030750000000000166e-01 1.406948000000000087e+00 7.211790000000000145e-01 -7.225810000000000288e-01 -2.755310999999999844e+00 1.571174000000000071e+00 2.157398999999999845e+00 1.680490000000000039e-01 5.495250000000000412e-01 3.330790000000000139e-01 -2.648639999999999883e-01 -2.554222999999999910e+00 3.875959999999999961e-01 5.544829999999999481e-01 4.038829999999999920e-01 1.006090000000000040e-01 8.293390000000000484e-01 -3.439769999999999772e-01 5.459859999999999713e-01 -2.426109999999999933e-01 3.003879999999999884e-01 -8.588899999999999313e-02 -1.137944999999999984e+00 -3.253829999999999778e-01 9.723079999999999501e-01 1.597302000000000000e+00 7.308000000000000260e-03 4.483420000000000183e-01 -1.704939999999999900e+00 -2.061109999999999887e-01 6.475720000000000365e-01 5.009090000000000487e-01 -3.367999999999999900e-03 1.904477999999999893e+00 1.719225999999999921e+00 -9.483690000000000175e-01 -1.466629999999999878e-01 1.633439999999999892e-01 1.230490000000000084e+00 2.327230000000000132e-01 -1.262026000000000092e+00 9.947620000000000351e-01 1.221399999999999986e-01 9.101759999999999851e-01 9.848190000000000000e-01 4.168140000000000178e-01 -1.464874999999999927e+00 -4.007789999999999964e-01 3.761789999999999856e-01 1.710289999999999866e-01 -1.379731999999999958e+00 -6.539999999999999807e-03 -9.076769999999999561e-01 -6.895459999999999923e-01 -1.297401999999999944e+00 -3.996500000000000052e-02 -1.866835999999999940e+00 6.002469999999999750e-01 -9.364000000000000795e-03 1.168590000000000018e+00 9.059800000000000075e-01 8.418109999999999760e-01 2.812650000000000095e+00 2.853657000000000110e+00 1.212560000000000027e-01 2.187647000000000119e+00 -7.754990000000000494e-01 -1.219081999999999999e+00 -2.919176999999999911e+00 5.530199999999999699e-02 -1.548246999999999929e+00 3.601219999999999977e-01 -6.151860000000000106e-01 1.435586999999999946e+00 4.897199999999999886e-01 -2.217649999999999899e-01 -4.832870000000000221e-01 2.877129999999999965e-01 4.968429999999999791e-01 2.297940000000000094e+00 2.310731999999999786e+00 1.403200000000000003e+00