-7.896684231192226733e+00 -2.436709194556228031e+00 -7.619714270889995644e-01 -2.436709194556228031e+00 -3.870961352664743060e+00 5.035130325242148430e+00 -7.619714270889995644e-01 5.035130325242148430e+00 -2.380038250212758444e-01
5.650586862263114796e+00 8.734084429624318080e-01 -7.500147640408177940e-01 8.734084429624318080e-01 1.016278221087791866e+00 -2.717321294603559423e+00 -7.500147640408177940e-01 -2.717321294603559423e+00 4.326425514135245898e+00
9.419266507823981227e-01 4.610074612387061066e+00 2.241441742657001868e+01 4.610074612387061066e+00 -1.351455708705874592e+01 -6.474737095409874854e+00 2.241441742657001868e+01 -6.474737095409874854e+00 1.040169596159341836e+01
4.073480863765431792e+01 -2.714564294456439875e+00 1.173673313045722821e+01 -2.714564294456439875e+00 5.051657945499118085e+01 1.501615784255385888e+00 1.173673313045722821e+01 1.501615784255385888e+00 3.575967619991336477e+01
3.399684016216409255e+00 1.047867518187156843e+00 6.012100854138873629e+00 1.047867518187156843e+00 1.319635241180076868e+01 2.501248223125939418e+00 6.012100854138873629e+00 2.501248223125939418e+00 5.573832817051442845e+00
-1.958593893720686552e+01 1.201373624659522932e+01 6.764304057373964341e+00 1.201373624659522932e+01 -1.916797139460096844e+01 1.336749323363988040e+01 6.764304057373964341e+00 1.336749323363988040e+01 -1.514676603882192474e+01
1.764118967351422995e+01 -1.440231223506560987e+01 3.733743206079603860e-01 -1.440231223506560987e+01 1.427809485954419699e+01 -1.335584598536833756e+00 3.733743206079603860e-01 -1.335584598536833756e+00 2.028414374054612779e+01
2.857139047299522971e+01 -2.392434400169632269e+00 1.172392498568682306e+01 -2.392434400169632269e+00 2.219725926219406631e+01 -9.894421300981960599e+00 1.172392498568682306e+01 -9.894421300981960599e+00 3.312698994746641290e+01
-5.781482969779762726e+00 -1.382256848050859022e+00 1.291965445228624709e+01 -1.382256848050859022e+00 -1.293963764769560676e+01 2.214892407917016914e+00 1.291965445228624709e+01 2.214892407917016914e+00 1.152437770014834584e+01
-1.277776478687097317e+01 6.514462065131926494e+00 5.078877255740223973e-01 6.514462065131926494e+00 -3.033204964753842248e+01 -6.688329465548513042e+00 5.078877255740223973e-01 -6.688329465548513042e+00 -1.606687784884010739e+01
3.599852133709402580e+01 2.938028462882498193e+00 1.252271326211063673e+01 2.938028462882498193e+00 3.243820004824733161e+01 -8.136689983456108166e+00 1.252271326211063673e+01 -8.136689983456108166e+00 2.757137037999311246e+01
-2.762280210447793394e+01 1.373024940435573632e-03 5.902318496620025279e+00 1.373024940435573632e-03 -3.672562705249455917e+01 -6.307816081568877742e+00 5.902318496620025279e+00 -6.307816081568877742e+00 -9.049600040031505088e+00
-1.720055263595821771e+01 1.594619852508066593e+00 1.694057027574479735e+00 1.594619852508066593e+00 -1.417154883590624870e+01 -4.707359463925185672e+00 1.694057027574479735e+00 -4.707359463925185672e+00 -1.564653479815177128e+01
-1.514713121099644866e+01 -4.116975589189656226e+00 6.412723965921693470e+00 -4.116975589189656226e+00 -2.889720075391807441e+01 -2.603422147180005197e+00 6.412723965921693470e+00 -2.603422147180005197e+00 -1.452599245088253710e+01
-2.395034213475926599e+00 -1.296199498459520782e+01 2.013024446378361088e+00 -1.296199498459520782e+01 -1.529889260187745315e+01 -6.482416856791604509e+00 2.013024446378361088e+00 -6.482416856791604509e+00 2.098867324235245135e-01
-3.845318346495593431e+01 2.896784167329146786e+00 2.730918732435206331e-01 2.896784167329146786e+00 -3.872024440535597023e+01 4.236959438868371564e+00 2.730918732435206331e-01 4.236959438868371564e+00 -3.127879018885748508e+01
3.260506898853147106e+01 4.377383913347038913e+00 1.750916194589728292e+01 4.377383913347038913e+00 3.062701408609904874e+01 -5.915867142414070301e+00 1.750916194589728292e+01 -5.915867142414070301e+00 5.629166511611333590e+01
1.672702210491695141e+01 5.978606513864149541e+00 4.979863801216159125e+00 5.978606513864149541e+00 1.859294178581621892e+01 -8.963593961115072783e-01 4.979863801216159125e+00 -8.963593961115072783e-01 4.263152606143559176e+00
3.180924739522200184e+01 7.497238610176860441e+00 5.472736101989594815e+00 7.497238610176860441e+00 4.230465641194428628e+01 6.009495265677816001e+00 5.472736101989594815e+00 6.009495265677816001e+00 1.822978538384923297e+01
-3.683210211855379868e+01 1.597032015084753065e-01 -4.232567137890511866e+00 1.597032015084753065e-01 -3.885072268605794932e+01 1.982293011544805417e+00 -4.232567137890511866e+00 1.982293011544805417e+00 -3.112183172139379650e+01
-2.696974846136154014e+01 -1.488176807931443868e+01 1.816189164150329560e+01 -1.488176807931443868e+01 -2.477826902757392702e+01 2.265760692148541811e+00 1.816189164150329560e+01 2.265760692148541811e+00 -8.787795191962020525e+00
2.774063136424146236e+01 5.029487917312616574e+00 1.103058547407685808e+01 5.029487917312616574e+00 -1.063551335058483538e+00 3.663520727132751897e+00 1.103058547407685808e+01 3.663520727132751897e+00 2.497042764253241742e+01
2.373292925857462166e+01 2.962322953394890490e+00 1.802400526122342361e+00 2.962322953394890490e+00 2.919025348991793933e+01 1.076083824450813520e+00 1.802400526122342361e+00 1.076083824450813520e+00 1.677953758847830557e+01
-3.222736986045364294e+00 9.188064929969334216e+00 6.453826297431459302e+00 9.188064929969334216e+00 2.256191953598834488e+01 6.147233984017654862e+00 6.453826297431459302e+00 6.147233984017654862e+00 2.185899318756128551e+01
-1.545861607712756713e+00 -2.864863217176710108e+00 3.450168675213637126e+00 -2.864863217176710108e+00 -1.117162340424951594e+01 -4.132733260815473209e+00 3.450168675213637126e+00 -4.132733260815473209e+00 1.024424536098174077e+00
-2.507821752591456743e+01 -5.674434666206023437e+00 8.802764050864192669e+00 -5.674434666206023437e+00 -2.434736875277275558e+01 3.261092086415240399e-01 8.802764050864192669e+00 3.261092086415240399e-01 -3.339098484609041151e+01
-2.471856689358125436e+01 -1.348118155169884647e+00 7.216306893737755024e-01 -1.348118155169884647e+00 -2.124692554600821026e+01 1.003350582633786736e+01 7.216306893737755024e-01 1.003350582633786736e+01 -2.489308141052462986e+01
-9.503819972835566787e+00 -1.312262273956071468e+01 1.133926011604051887e+01 -1.312262273956071468e+01 -2.407888981247254279e+01 2.427949750907991255e+00 1.133926011604051887e+01 2.427949750907991255e+00 -8.158477917128617918e+00
1.074638696168481644e+01 -3.778278648342518142e+00 1.093980873262107245e+01 -3.778278648342518142e+00 -4.733801148425697214e+00 -3.060922496773001544e+00 1.093980873262107245e+01 -3.060922496773001544e+00 -4.109911128744172970e+00
-2.084766860634018570e+01 -7.300513974607833134e+00 9.569004086822159749e+00 -7.300513974607833134e+00 -4.199046830825961507e+01 2.408492257941478698e+00 9.569004086822159749e+00 2.408492257941478698e+00 -1.150745282681626591e+01
5.226913719912973377e+00 9.187484719217231088e+00 1.576399944020103527e+00 9.187484719217231088e+00 1.030709192493920767e+01 8.853483891519454474e+00 1.576399944020103527e+00 8.853483891519454474e+00 9.775109865246056629e+00
1.375271829225794740e+01 -6.317140921380463681e+00 4.296561137182382417e+00 -6.317140921380463681e+00 2.458830241664096761e+01 1.272349201145997144e+00 4.296561137182382417e+00 1.272349201145997144e+00 1.027547465013827122e+01
1.172481537950191210e+01 1.004428196244062876e+00 8.252769122138822411e+00 1.004428196244062876e+00 6.332367817851589642e-01 -1.922638164712286768e+00 8.252769122138822411e+00 -1.922638164712286768e+00 -1.315139435159718095e+00
2.275554311837866805e+01 1.323646079175878620e+00 6.041363568430994313e+00 1.323646079175878620e+00 2.923233152858061512e+00 8.271950110193987626e+00 6.041363568430994313e+00 8.271950110193987626e+00 1.220593675244113108e+01
2.169526839685692110e+01 5.578562097888938531e+00 1.184579049467967593e+01 5.578562097888938531e+00 3.363991636944796682e+01 -6.888908001427584082e+00 1.184579049467967593e+01 -6.888908001427584082e+00 1.254991310954781092e+01
2.226893691124880448e+01 -5.501215724016293995e-01 9.036544005548327263e+00 -5.501215724016293995e-01 4.837976902041751259e+01 3.334273517986263147e-01 9.036544005548327263e+00 3.334273517986263147e-01 3.421589508609818608e+01
1.888298733139739616e+00 7.072390243007345312e+00 7.219064442864262965e+00 7.072390243007345312e+00 -4.301681295606990751e+00 6.044286444914813927e+00 7.219064442864262965e+00 6.044286444914813927e+00 1.666028411290891498e+01
-2.683643337595000400e+00 -6.712915941026460054e+00 3.470916208913093826e+00 -6.712915941026460054e+00 -8.495144868846251640e+00 -3.759537822646973115e+00 3.470916208913093826e+00 -3.759537822646973115e+00 1.700734115051914586e+01
2.035616641191459308e+01 5.760598255974576531e+00 4.213004166711840526e+00 5.760598255974576531e+00 1.474275204849953802e+01 -7.820016671695743327e+00 4.213004166711840526e+00 -7.820016671695743327e+00 3.007041680109946569e+01
-3.114218672435136170e+00 -4.202884079795992989e+00 1.490735359289180728e+01 -4.202884079795992989e+00 1.615886925110440941e+01 -9.314759677061994481e+00 1.490735359289180728e+01 -9.314759677061994481e+00 2.427079596013243545e+01
-1.582723219137921866e+01 1.564796598680534778e+01 6.269135093692918659e+00 1.564796598680534778e+01 -9.072922512930603034e+00 1.112117767968854753e+00 6.269135093692918659e+00 1.112117767968854753e+00 -1.471659811560373399e+01
-2.653512238645211241e+01 2.200934592567613812e+00 -8.629939163430442761e+00 2.200934592567613812e+00 -2.797296545882104368e+01 -4.876823128880136693e+00 -8.629939163430442761e+00 -4.876823128880136693e+00 -1.005789723978351091e+01
5.290922995148191532e+00 -8.008872477636563403e+00 2.964272913850261038e+00 -8.008872477636563403e+00 4.507649158844174053e+00 3.722840508567556217e+00 2.964272913850261038e+00 3.722840508567556217e+00 1.237487820254639637e+01
-5.661260666057805935e+01 1.053390413634086187e+01 5.358877519599206662e-01 1.053390413634086187e+01 -6.327848514527536850e+01 -2.939169796669066859e+00 5.358877519599206662e-01 -2.939169796669066859e+00 -4.516017918897097161e+01
1.923289634866141284e+01 -1.039215786699496746e+01 5.726439549344920721e+00 -1.039215786699496746e+01 1.193924440795034458e+00 9.262506303318192025e+00 5.726439549344920721e+00 9.262506303318192025e+00 2.724298481214710321e+01
-8.317076562301881637e+00 5.402309486798506200e+00 9.025792926475899591e+00 5.402309486798506200e+00 -1.495496875806381532e+01 -4.249862116263138923e+00 9.025792926475899591e+00 -4.249862116263138923e+00 -6.283979548378230140e-01
2.984963795775437845e+01 -3.518314765434901736e-01 -1.478517388128456789e+00 -3.518314765434901736e-01 3.808184187390261144e+01 -1.191524987067174024e+00 -1.478517388128456789e+00 -1.191524987067174024e+00 3.985276477616511670e+01
-1.040151891421573893e+01 -9.490899797312735586e+00 -2.782959251473574813e+00 -9.490899797312735586e+00 -1.426308503184112553e+01 7.851016980691549740e+00 -2.782959251473574813e+00 7.851016980691549740e+00 6.812166468936139418e-01
3.010269489053751713e+01 -1.654028502498606201e+01 2.654786068999123838e+00 -1.654028502498606201e+01 1.498382959864012065e+01 2.840703951787391990e+00 2.654786068999123838e+00 2.840703951787391990e+00 2.711105990005039246e+01
1.260207965766859672e+01 2.640898048728634429e+00 4.402525712621429221e+00 2.640898048728634429e+00 -1.862944194358353789e+00 -7.553743180366576659e+00 4.402525712621429221e+00 -7.553743180366576659e+00 5.779344109719146694e+00
