1.033101218400000043e+01 0.000000000000000000e+00 0.000000000000000000e+00 -3.972558999999999639e-03 1.043215153699999931e+01 0.000000000000000000e+00 -1.803297962000000032e+00 1.909482300000000035e-02 1.053853782000000017e+01
1.024959096000000081e+01 0.000000000000000000e+00 0.000000000000000000e+00 -1.628005999999999898e-02 1.036710411600000015e+01 0.000000000000000000e+00 -1.759960119000000045e+00 2.432962699999999950e-02 1.047239912000000039e+01
1.034444170000000085e+01 0.000000000000000000e+00 0.000000000000000000e+00 -1.643071800000000041e-02 1.046304233500000080e+01 0.000000000000000000e+00 -1.776246965999999983e+00 2.455477600000000038e-02 1.056931175000000067e+01
1.038755045499999952e+01 0.000000000000000000e+00 0.000000000000000000e+00 -3.994298999999999766e-03 1.048924331099999918e+01 0.000000000000000000e+00 -1.813166824999999927e+00 1.919932300000000078e-02 1.059621181199999995e+01
1.026563310799999940e+01 0.000000000000000000e+00 0.000000000000000000e+00 -1.630554099999999978e-02 1.038333019000000057e+01 0.000000000000000000e+00 -1.762714721000000040e+00 2.436770699999999887e-02 1.048878999599999950e+01
1.031454740400000070e+01 0.000000000000000000e+00 0.000000000000000000e+00 -1.638323499999999946e-02 1.043280529599999973e+01 0.000000000000000000e+00 -1.771113807999999956e+00 2.448381499999999905e-02 1.053876760400000023e+01
1.027830109599999986e+01 0.000000000000000000e+00 0.000000000000000000e+00 -1.632566200000000120e-02 1.039614341899999950e+01 0.000000000000000000e+00 -1.764889944999999960e+00 2.439777699999999896e-02 1.050173336499999976e+01
1.028157537300000079e+01 0.000000000000000000e+00 0.000000000000000000e+00 -1.633086300000000102e-02 1.039945523599999966e+01 0.000000000000000000e+00 -1.765452172000000042e+00 2.440554899999999861e-02 1.050507881899999951e+01
1.031565776999999962e+01 0.000000000000000000e+00 0.000000000000000000e+00 -3.966655000000000354e-03 1.041664680599999926e+01 0.000000000000000000e+00 -1.800617820000000036e+00 1.906644399999999837e-02 1.052287497300000041e+01
1.034374661400000051e+01 0.000000000000000000e+00 0.000000000000000000e+00 -1.642961399999999864e-02 1.046233928000000013e+01 0.000000000000000000e+00 -1.776127613000000105e+00 2.455312600000000151e-02 1.056860155300000059e+01
1.034949540899999931e+01 0.000000000000000000e+00 0.000000000000000000e+00 -3.979665999999999759e-03 1.045081571100000062e+01 0.000000000000000000e+00 -1.806524244000000001e+00 1.912898600000000060e-02 1.055739233000000077e+01
1.032996589699999923e+01 0.000000000000000000e+00 0.000000000000000000e+00 -3.972156999999999598e-03 1.043109500699999970e+01 0.000000000000000000e+00 -1.803115330000000016e+00 1.909288899999999831e-02 1.053747051600000084e+01
1.024794224300000067e+01 0.000000000000000000e+00 0.000000000000000000e+00 -1.627744199999999961e-02 1.036543649699999925e+01 0.000000000000000000e+00 -1.759677017000000010e+00 2.432571399999999828e-02 1.047071456399999967e+01
1.034280630599999995e+01 0.000000000000000000e+00 0.000000000000000000e+00 -3.977093999999999595e-03 1.044406112299999911e+01 0.000000000000000000e+00 -1.805356648999999924e+00 1.911662199999999978e-02 1.055056885900000019e+01
1.021558313899999959e+01 0.000000000000000000e+00 0.000000000000000000e+00 -3.928173000000000081e-03 1.031559245599999919e+01 0.000000000000000000e+00 -1.783149601000000084e+00 1.888147600000000120e-02 1.042079007799999957e+01
1.021941107600000009e+01 0.000000000000000000e+00 0.000000000000000000e+00 -1.623212400000000055e-02 1.033657821499999940e+01 0.000000000000000000e+00 -1.754777923000000017e+00 2.425798900000000063e-02 1.044156317799999911e+01
1.035322133200000039e+01 0.000000000000000000e+00 0.000000000000000000e+00 -3.981099000000000096e-03 1.045457811100000001e+01 0.000000000000000000e+00 -1.807174610999999986e+00 1.913587300000000116e-02 1.056119309800000039e+01
1.032122592500000025e+01 0.000000000000000000e+00 0.000000000000000000e+00 -1.639384300000000169e-02 1.043956038700000022e+01 0.000000000000000000e+00 -1.772260578999999892e+00 2.449966799999999875e-02 1.054559130400000022e+01
1.028715468400000077e+01 0.000000000000000000e+00 0.000000000000000000e+00 -1.633972499999999939e-02 1.040509851500000060e+01 0.000000000000000000e+00 -1.766410196999999904e+00 2.441879300000000114e-02 1.051077941399999993e+01
1.034109849200000042e+01 0.000000000000000000e+00 0.000000000000000000e+00 -3.976437000000000201e-03 1.044233658899999995e+01 0.000000000000000000e+00 -1.805058545999999930e+00 1.911346599999999910e-02 1.054882673900000079e+01
1.032788584799999931e+01 0.000000000000000000e+00 0.000000000000000000e+00 -3.971357000000000012e-03 1.042899459600000078e+01 0.000000000000000000e+00 -1.802752254000000054e+00 1.908904499999999893e-02 1.053534868400000057e+01
1.038513543700000064e+01 0.000000000000000000e+00 0.000000000000000000e+00 -1.649535400000000027e-02 1.050420263200000015e+01 0.000000000000000000e+00 -1.783234498999999973e+00 2.465137099999999831e-02 1.061089009700000041e+01
1.036189041599999960e+01 0.000000000000000000e+00 0.000000000000000000e+00 -1.645843300000000148e-02 1.048069110299999984e+01 0.000000000000000000e+00 -1.779243090000000027e+00 2.459619399999999831e-02 1.058713977000000028e+01
1.047514979500000010e+01 0.000000000000000000e+00 0.000000000000000000e+00 -4.027984000000000078e-03 1.057770023800000025e+01 0.000000000000000000e+00 -1.828457457999999924e+00 1.936123299999999853e-02 1.068557081600000025e+01
1.039602899099999966e+01 0.000000000000000000e+00 0.000000000000000000e+00 -3.997559999999999829e-03 1.049780485099999972e+01 0.000000000000000000e+00 -1.814646769999999965e+00 1.921499399999999913e-02 1.060486066100000002e+01
1.032169535000000060e+01 0.000000000000000000e+00 0.000000000000000000e+00 -1.639458800000000160e-02 1.044003519400000002e+01 0.000000000000000000e+00 -1.772341184000000069e+00 2.450078300000000167e-02 1.054607093299999931e+01
1.029595129600000014e+01 0.000000000000000000e+00 0.000000000000000000e+00 -1.635369700000000037e-02 1.041399598099999935e+01 0.000000000000000000e+00 -1.767920664999999891e+00 2.443967299999999856e-02 1.051976724899999915e+01
1.029376871200000032e+01 0.000000000000000000e+00 0.000000000000000000e+00 -1.635023099999999979e-02 1.041178837300000026e+01 0.000000000000000000e+00 -1.767545893000000090e+00 2.443449300000000157e-02 1.051753721899999938e+01
1.025655817500000033e+01 0.000000000000000000e+00 0.000000000000000000e+00 -1.629112699999999900e-02 1.037415121099999915e+01 0.000000000000000000e+00 -1.761156460999999895e+00 2.434616499999999947e-02 1.047951778999999917e+01
1.033665165799999919e+01 0.000000000000000000e+00 0.000000000000000000e+00 -3.974726999999999948e-03 1.043784622099999915e+01 0.000000000000000000e+00 -1.804282342999999900e+00 1.910524699999999881e-02 1.054429057800000002e+01
1.019848741400000058e+01 0.000000000000000000e+00 0.000000000000000000e+00 -1.619888900000000104e-02 1.031541466100000015e+01 0.000000000000000000e+00 -1.751185114999999959e+00 2.420832200000000087e-02 1.042018467299999962e+01
1.019409946699999914e+01 0.000000000000000000e+00 0.000000000000000000e+00 -1.619191999999999854e-02 1.031097640499999990e+01 0.000000000000000000e+00 -1.750431658999999973e+00 2.419790600000000166e-02 1.041570134000000003e+01
1.027572077099999959e+01 0.000000000000000000e+00 0.000000000000000000e+00 -3.951297999999999790e-03 1.037631882900000058e+01 0.000000000000000000e+00 -1.793646740000000017e+00 1.899262800000000098e-02 1.048213573399999987e+01
1.043768502900000072e+01 0.000000000000000000e+00 0.000000000000000000e+00 -1.657882200000000000e-02 1.055735471300000050e+01 0.000000000000000000e+00 -1.792257803999999899e+00 2.477610900000000102e-02 1.066458202499999963e+01
1.031941013399999996e+01 0.000000000000000000e+00 0.000000000000000000e+00 -3.968097999999999764e-03 1.042043590599999980e+01 0.000000000000000000e+00 -1.801272801999999951e+00 1.907337900000000142e-02 1.052670271300000060e+01
1.035759828700000007e+01 0.000000000000000000e+00 0.000000000000000000e+00 -1.645161499999999929e-02 1.047634976400000006e+01 0.000000000000000000e+00 -1.778506087000000013e+00 2.458600600000000053e-02 1.058275433700000079e+01
1.033674733900000042e+01 0.000000000000000000e+00 0.000000000000000000e+00 -3.974764000000000422e-03 1.043794283999999983e+01 0.000000000000000000e+00 -1.804299043999999963e+00 1.910542399999999932e-02 1.054438818200000050e+01
1.037728563299999962e+01 0.000000000000000000e+00 0.000000000000000000e+00 -3.990351999999999962e-03 1.047887799799999975e+01 0.000000000000000000e+00 -1.811375080999999998e+00 1.918035100000000173e-02 1.058574079399999945e+01
1.031485901900000002e+01 0.000000000000000000e+00 0.000000000000000000e+00 -1.638372999999999913e-02 1.043312048399999981e+01 0.000000000000000000e+00 -1.771167316000000103e+00 2.448455500000000160e-02 1.053908599300000049e+01
1.028680931000000065e+01 0.000000000000000000e+00 0.000000000000000000e+00 -3.955562000000000140e-03 1.038751592300000048e+01 0.000000000000000000e+00 -1.795582266000000038e+00 1.901312299999999983e-02 1.049344701599999929e+01
1.028985587100000032e+01 0.000000000000000000e+00 0.000000000000000000e+00 -1.634401599999999941e-02 1.040783067099999926e+01 0.000000000000000000e+00 -1.766874017999999991e+00 2.442520499999999845e-02 1.051353931999999958e+01
1.025799242299999925e+01 0.000000000000000000e+00 0.000000000000000000e+00 -1.629340500000000039e-02 1.037560190299999974e+01 0.000000000000000000e+00 -1.761402737000000052e+00 2.434957000000000094e-02 1.048098321700000035e+01
1.023933629200000084e+01 0.000000000000000000e+00 0.000000000000000000e+00 -3.937307000000000133e-03 1.033957814999999947e+01 0.000000000000000000e+00 -1.787295759000000039e+00 1.892537899999999912e-02 1.044502037700000052e+01
1.033509828999999947e+01 0.000000000000000000e+00 0.000000000000000000e+00 -3.974130000000000197e-03 1.043627764700000071e+01 0.000000000000000000e+00 -1.804011199999999926e+00 1.910237600000000077e-02 1.054270600699999960e+01
1.031802939199999969e+01 0.000000000000000000e+00 0.000000000000000000e+00 -3.967566999999999969e-03 1.041904164600000016e+01 0.000000000000000000e+00 -1.801031790999999993e+00 1.907082699999999853e-02 1.052529423500000050e+01
1.040361219100000056e+01 0.000000000000000000e+00 0.000000000000000000e+00 -4.000476000000000205e-03 1.050546228900000045e+01 0.000000000000000000e+00 -1.815970432000000079e+00 1.922901000000000124e-02 1.061259618999999965e+01
1.031709191100000034e+01 0.000000000000000000e+00 0.000000000000000000e+00 -3.967206000000000031e-03 1.041809498699999992e+01 0.000000000000000000e+00 -1.800868152000000055e+00 1.906909400000000171e-02 1.052433792200000084e+01
1.031741536100000012e+01 0.000000000000000000e+00 0.000000000000000000e+00 -3.967329999999999815e-03 1.041842160300000053e+01 0.000000000000000000e+00 -1.800924610000000037e+00 1.906969199999999920e-02 1.052466786899999995e+01
1.040103661100000032e+01 0.000000000000000000e+00 0.000000000000000000e+00 -1.652061100000000102e-02 1.052028611499999933e+01 0.000000000000000000e+00 -1.785964893999999914e+00 2.468911600000000053e-02 1.062713693499999934e+01
1.030980083999999941e+01 0.000000000000000000e+00 0.000000000000000000e+00 -1.637569499999999914e-02 1.042800431200000055e+01 0.000000000000000000e+00 -1.770298774000000019e+00 2.447254800000000022e-02 1.053391785800000058e+01
