1.028246000000000038e+01 2.887859999999999872e+00 3.025290000000000035e+00 1.007500000000000062e-01 2.677259999999999973e+00 7.273920000000000385e+00 1.507699999999999874e-01 8.015969999999999374e+00 2.422470000000000123e+00 3.482999999999999985e-02 7.846009999999999707e+00 7.634149999999999991e+00 5.059580000000000410e+00 2.490909999999999958e+00 2.530980000000000008e+00 5.118800000000000239e+00 2.514040000000000052e+00 7.913000000000000256e+00 4.690450000000000230e+00 7.628499999999999837e+00 2.350379999999999914e+00 5.332130000000000258e+00 7.860360000000000014e+00 7.941309999999999647e+00 2.448780000000000179e+00 5.052810000000000024e+00 2.461349999999999927e+00 2.808120000000000172e+00 5.360170000000000101e+00 7.622440000000000104e+00 2.677059999999999995e+00 1.074055000000000071e+01 2.951169999999999849e+00 2.636219999999999786e+00 1.034254999999999924e+01 7.501330000000000275e+00 7.955370000000000275e+00 5.402519999999999989e+00 2.282239999999999824e+00 7.726270000000000415e+00 4.988330000000000375e+00 7.724000000000000199e+00 8.190709999999999269e+00 1.074264999999999937e+01 2.130370000000000097e+00 7.614819999999999922e+00 1.031445000000000078e+01 7.641269999999999563e+00 2.571660000000000057e+00 2.289499999999999869e+00 5.238590000000000302e+00 2.703770000000000007e+00 2.415109999999999868e+00 1.242000000000000048e-01 2.419059999999999988e+00 8.007949999999999235e+00 4.903159999999999741e+00 2.713109999999999911e+00 7.609049999999999869e+00 1.001479999999999926e+01 7.888169999999999682e+00 2.319329999999999892e+00 5.074209999999999887e+00 7.992180000000000284e+00 2.319900000000000073e+00 8.679000000000000603e-02 7.713269999999999627e+00 7.990529999999999688e+00 4.828700000000000436e+00 7.487149999999999750e+00 8.032429999999999737e+00 1.029148999999999958e+01 1.111800000000000010e-01 5.372069999999999901e+00 4.966929999999999623e+00 1.140100000000000002e-01 5.220089999999999897e+00 1.001258999999999943e+01 1.023146000000000022e+01 1.040704999999999991e+01 5.129240000000000244e+00 1.406399999999999872e-01 1.052094999999999914e+01 9.847490000000000521e+00 5.394759999999999778e+00 5.431670000000000442e+00 5.116209999999999702e+00 5.225539999999999630e+00 5.155140000000000278e+00 1.030959000000000003e+01 5.800320000000000142e+00 4.147799999999999820e-01 5.064540000000000042e+00 5.124369999999999870e+00 1.058375000000000021e+01 1.024028999999999989e+01 3.831389999999999851e+00 3.607590000000000074e+00 3.749859999999999971e+00 1.322559999999999958e+00 3.636919999999999931e+00 9.585720000000000240e+00 3.576659999999999950e+00 8.942249999999999588e+00 3.482499999999999929e+00 4.149219999999999686e+00 9.610490000000000421e+00 8.935299999999999798e+00 8.863009999999999167e+00 4.130419999999999980e+00 4.027800000000000047e+00 9.243140000000000356e+00 9.545700000000000296e-01 8.669760000000000133e+00 8.952139999999999986e+00 9.270640000000000214e+00 3.596169999999999867e+00 8.960739999999999483e+00 9.093540000000000845e+00 6.193939999999999557e+00 3.787189999999999834e+00 1.105140000000000011e+00 1.402789999999999981e+00 4.592039999999999900e+00 7.094799999999999995e-01 6.865090000000000359e+00 3.835269999999999957e+00 6.087509999999999977e+00 1.371250000000000080e+00 4.342570000000000263e+00 6.169800000000000395e+00 6.636980000000000324e+00 9.128370000000000317e+00 8.993919999999999249e+00 1.100810000000000066e+00 6.499979999999999869e+00 9.200200000000000600e+00 6.494170000000000442e+00 4.717500000000000027e-01 4.719769999999999577e+00 1.790990000000000082e+00 9.556309999999999860e+00 6.216420000000000279e+00 7.996970000000000134e+00 3.936910000000000132e+00 1.159270000000000023e+00 4.212060000000000137e+00 3.981360000000000010e+00 1.740129999999999955e+00 9.351779999999999760e+00 3.471150000000000180e+00 6.556420000000000137e+00 3.930349999999999788e+00 4.515830000000000233e+00 6.945129999999999804e+00 9.362519999999999953e+00 8.897750000000000270e+00 1.163769999999999971e+00 3.566520000000000135e+00 9.191869999999999763e+00 8.761179999999999524e+00 8.786070000000000491e+00 9.042579999999999174e+00 6.819869999999999877e+00 3.455249999999999932e+00 8.919639999999999347e+00 3.642539999999999889e+00 9.029640000000000555e+00 4.181619999999999671e+00 3.365720000000000045e+00 1.138700000000000045e+00 3.887789999999999857e+00 3.364689999999999959e+00 6.598900000000000432e+00 4.061639999999999695e+00 8.917339999999999378e+00 8.020500000000000407e-01 3.527969999999999828e+00 8.729649999999999466e+00 6.878409999999999691e+00 1.423829999999999929e+00 1.127159999999999940e+00 4.135880000000000223e+00 1.673999999999999932e+00 9.039700000000000513e-01 9.145239999999999370e+00 1.076740000000000030e+00 6.727109999999999701e+00 3.635190000000000143e+00 1.494979999999999976e+00 6.380519999999999747e+00 8.933070000000000732e+00 6.496540000000000425e+00 2.509160000000000057e+00 3.892929999999999779e+00 6.007410000000000139e+00 3.631369999999999987e+00 9.271729999999999805e+00 6.179599999999999760e+00 7.555270000000000152e+00 3.849060000000000148e+00 6.834120000000000417e+00 6.452869999999999884e+00 8.809670000000000556e+00 1.698260000000000103e+00 2.860050000000000203e+00 2.052470000000000017e+00 8.756930000000000547e+00 3.325340000000000185e+00 6.529709999999999681e+00 1.047379999999999978e+00 9.731469999999999843e+00 1.499929999999999986e+00 1.159089999999999954e+00 9.380480000000000373e+00 6.346680000000000099e+00 7.271969999999999601e+00 3.782989999999999853e+00 1.312869999999999981e+00 6.411520000000000330e+00 3.932700000000000085e+00 6.417029999999999568e+00 6.332790000000000141e+00 9.342589999999999506e+00 1.260520000000000085e+00 6.750189999999999912e+00 1.093280000000000030e+00 8.741469999999999629e+00 1.293630000000000058e+00 3.724619999999999820e+00 4.206699999999999662e+00 1.223680000000000101e+00 4.394289999999999807e+00 6.783439999999999692e+00 1.145880000000000010e+00 9.241350000000000620e+00 4.142170000000000130e+00 1.459559999999999969e+00 8.880240000000000578e+00 9.186609999999999943e+00 6.345139999999999780e+00 5.097439999999999749e+00 3.078110000000000124e+00 3.691209999999999880e+00 4.332449999999999690e+00 9.089389999999999858e+00 6.896770000000000067e+00 1.037044999999999995e+01 3.752349999999999852e+00 6.630550000000000388e+00 9.239020000000000010e+00 9.279600000000000293e+00 9.485429999999999140e+00 1.077560000000000073e+00 9.480399999999999938e-01 1.436860000000000026e+00 1.096470000000000056e+00 6.544190000000000396e+00 8.689159999999999329e+00 6.068050000000000388e+00 3.697699999999999876e-01 1.665489999999999915e+00 6.566849999999999632e+00 6.075160000000000338e+00 6.354980000000000295e+00 1.297190000000000065e+00 1.275940000000000074e+00 9.331830000000000069e+00 1.291679999999999939e+00 6.103650000000000020e+00 6.583680000000000199e+00 6.644190000000000040e+00 1.056980000000000031e+00 7.285630000000000273e+00 6.226580000000000226e+00 5.877430000000000376e+00
4.143999999999999767e-02 2.753019999999999801e+00 2.502069999999999794e+00 4.340000000000000108e-03 2.351100000000000190e+00 7.905330000000000190e+00 4.449000000000000177e-02 7.885830000000000339e+00 2.499639999999999862e+00 2.805199999999999916e-01 7.263370000000000104e+00 7.298250000000000348e+00 5.305749999999999744e+00 2.701319999999999943e+00 2.290210000000000079e+00 5.114250000000000185e+00 2.369930000000000092e+00 7.368380000000000152e+00 5.238610000000000433e+00 7.968580000000000219e+00 2.639009999999999856e+00 5.183519999999999683e+00 7.640080000000000204e+00 7.653850000000000264e+00 2.600340000000000096e+00 4.601069999999999993e+00 2.116950000000000109e+00 2.727289999999999992e+00 4.556029999999999802e+00 7.759109999999999729e+00 2.622370000000000090e+00 -8.999999999999999320e-03 2.737729999999999997e+00 2.518600000000000172e+00 1.039180999999999955e+01 7.635440000000000005e+00 7.995210000000000150e+00 5.692599999999999660e+00 2.676480000000000192e+00 7.705280000000000129e+00 5.312800000000000189e+00 7.698940000000000339e+00 7.945020000000000415e+00 1.051990999999999943e+01 2.413370000000000015e+00 8.055830000000000268e+00 1.054800999999999966e+01 7.893309999999999604e+00 2.492220000000000102e+00 2.119819999999999816e+00 5.167099999999999582e+00 2.412990000000000190e+00 1.860340000000000105e+00 1.035055999999999976e+01 2.854130000000000056e+00 8.216499999999999915e+00 4.849680000000000213e+00 2.496869999999999923e+00 8.233079999999999288e+00 1.035416000000000025e+01 7.864819999999999922e+00 2.864799999999999791e+00 5.099549999999999805e+00 7.811939999999999884e+00 2.979319999999999968e+00 2.533099999999999796e-01 7.796890000000000320e+00 8.242070000000000007e+00 5.269720000000000404e+00 7.651119999999999699e+00 8.270580000000000709e+00 7.326000000000000567e-02 6.841899999999999649e-01 5.128440000000000332e+00 4.924540000000000362e+00 1.028777999999999970e+01 5.522569999999999979e+00 1.021846000000000032e+01 1.419900000000000051e-01 1.059261000000000053e+01 5.362009999999999721e+00 1.007135000000000069e+01 1.469799999999999995e-01 3.408200000000000118e-01 5.268150000000000333e+00 5.178449999999999775e+00 4.934789999999999566e+00 5.361209999999999809e+00 5.375659999999999883e+00 1.034956000000000031e+01 5.295410000000000394e+00 -1.635999999999999954e-02 5.008479999999999599e+00 5.357330000000000148e+00 6.106999999999999929e-02 9.931889999999999219e+00 4.349099999999999966e+00 4.291280000000000427e+00 3.212810000000000166e+00 4.166520000000000223e+00 4.358439999999999870e+00 9.077149999999999608e+00 3.968020000000000103e+00 9.666470000000000340e+00 3.861270000000000202e+00 3.914680000000000160e+00 9.708280000000000243e+00 9.284019999999999939e+00 9.242720000000000269e+00 3.737579999999999902e+00 6.899989999999999846e+00 9.361309999999999576e+00 1.895049999999999901e+00 9.587329999999999686e+00 9.058590000000000586e+00 9.011789999999999523e+00 6.533290000000000042e+00 8.855130000000000834e+00 9.998689999999999856e+00 9.546609999999999374e+00 3.874690000000000190e+00 7.906999999999999584e-01 1.100589999999999957e+00 3.978060000000000151e+00 5.712800000000000100e-01 6.181339999999999613e+00 3.791850000000000165e+00 5.881890000000000285e+00 1.095080000000000053e+00 4.343099999999999739e+00 6.170919999999999739e+00 6.806309999999999860e+00 8.730930000000000746e+00 1.005813000000000024e+01 4.213840000000000252e+00 9.668599999999999639e+00 6.038099999999999579e-01 7.079159999999999897e+00 9.259900000000000020e+00 9.293139999999999290e+00 1.268429999999999946e+00 9.548809999999999576e+00 6.343589999999999840e+00 5.948970000000000091e+00 3.480160000000000142e+00 1.672619999999999996e+00 3.398690000000000211e+00 4.169839999999999769e+00 1.540389999999999926e+00 8.855119999999999436e+00 4.154639999999999667e+00 7.019449999999999967e+00 3.920160000000000089e+00 4.315070000000000405e+00 7.262830000000000119e+00 9.470480000000000231e+00 9.466789999999999594e+00 4.649810000000000443e+00 3.681690000000000129e+00 8.724019999999999442e+00 1.321890000000000009e+00 1.582219999999999960e+00 9.066539999999999822e+00 7.398590000000000444e+00 3.660820000000000185e+00 9.320619999999999905e+00 6.366050000000000431e+00 8.456369999999999720e+00 3.624919999999999920e+00 3.207149999999999945e+00 1.086950000000000083e+00 3.816019999999999968e+00 3.466270000000000184e+00 6.149309999999999832e+00 3.426969999999999850e+00 8.665779999999999816e+00 1.714439999999999964e+00 4.065030000000000143e+00 8.731109999999999260e+00 6.327630000000000088e+00 9.455439999999999401e+00 1.634880000000000111e+00 4.447549999999999670e+00 1.354540000000000077e+00 6.868300000000000516e-01 9.087469999999999715e+00 1.129410000000000025e+00 6.522210000000000285e+00 3.465710000000000068e+00 1.406609999999999916e+00 6.157650000000000290e+00 8.603310000000000457e+00 6.087069999999999759e+00 8.612100000000000311e-01 3.186809999999999921e+00 6.502180000000000071e+00 7.479900000000000437e-01 8.305300000000000793e+00 6.804680000000000284e+00 6.373999999999999666e+00 4.038289999999999935e+00 6.715010000000000367e+00 6.464459999999999873e+00 9.351480000000000459e+00 6.184500000000000552e-01 4.619349999999999845e+00 1.674739999999999895e+00 1.473510000000000097e+00 3.516410000000000036e+00 6.190730000000000288e+00 1.237519999999999953e+00 9.509759999999999991e+00 1.039279999999999982e+00 1.334200000000000053e+00 9.313679999999999737e+00 6.301630000000000287e+00 6.104339999999999655e+00 4.258799999999999919e+00 1.331399999999999917e+00 6.484880000000000422e+00 4.042650000000000077e+00 6.302419999999999689e+00 6.536039999999999850e+00 9.613540000000000418e+00 9.357799999999999452e-01 6.686980000000000146e+00 9.844110000000000582e+00 6.236919999999999575e+00 1.616400000000000059e+00 3.633599999999999941e+00 3.614120000000000221e+00 1.657980000000000009e+00 3.187419999999999920e+00 8.946180000000000021e+00 1.017109999999999959e+00 9.383950000000000458e+00 3.915439999999999809e+00 1.628239999999999910e+00 8.858459999999999113e+00 8.686780000000000612e+00 6.994580000000000020e+00 3.981419999999999959e+00 3.774770000000000181e+00 6.868850000000000122e+00 3.374690000000000190e+00 8.996790000000000731e+00 6.729049999999999976e+00 8.862470000000000070e+00 3.576220000000000176e+00 6.723740000000000272e+00 9.118719999999999715e+00 8.505670000000000286e+00 1.154809999999999892e+00 1.357779999999999987e+00 1.617879999999999985e+00 1.539600000000000080e+00 8.760499999999999954e-01 6.469459999999999766e+00 1.064710000000000045e+00 6.929780000000000051e+00 8.792799999999999505e-01 1.694209999999999994e+00 6.607619999999999827e+00 6.096560000000000201e+00 6.253639999999999866e+00 1.863450000000000051e+00 8.238299999999999512e-01 6.280549999999999855e+00 1.804619999999999891e+00 5.665160000000000196e+00 6.469640000000000057e+00 6.916400000000000325e+00 1.416919999999999957e+00 6.886339999999999684e+00 6.822569999999999801e+00 6.783260000000000289e+00
1.006704000000000043e+01 2.698920000000000208e+00 2.165329999999999977e+00 2.831500000000000128e-01 2.744679999999999787e+00 7.637349999999999639e+00 1.026205999999999996e+01 8.033730000000000260e+00 3.172670000000000101e+00 3.439999999999999915e-03 7.502900000000000347e+00 7.390430000000000277e+00 5.375070000000000014e+00 2.989559999999999995e+00 2.572599999999999998e+00 5.414439999999999920e+00 2.563530000000000086e+00 7.534550000000000303e+00 5.321810000000000151e+00 7.801910000000000345e+00 2.487830000000000208e+00 5.417769999999999975e+00 7.290110000000000312e+00 8.077730000000000743e+00 2.728180000000000049e+00 5.800460000000000171e+00 2.178389999999999826e+00 2.640089999999999826e+00 5.537759999999999572e+00 7.606959999999999944e+00 2.397040000000000060e+00 9.861999999999999933e-02 2.180120000000000058e+00 2.395729999999999915e+00 1.057583999999999946e+01 7.720679999999999765e+00 7.841260000000000119e+00 5.505390000000000228e+00 2.715430000000000010e+00 8.125719999999999388e+00 5.367350000000000065e+00 7.833529999999999660e+00 7.598969999999999558e+00 1.056733999999999973e+01 2.393009999999999859e+00 7.733399999999999608e+00 1.038983999999999952e+01 7.735780000000000101e+00 2.749769999999999825e+00 2.576229999999999798e+00 5.235030000000000072e+00 2.668219999999999814e+00 2.285120000000000040e+00 1.011449999999999960e+01 3.018530000000000157e+00 8.006159999999999499e+00 5.017260000000000275e+00 2.557970000000000077e+00 8.295650000000000190e+00 1.459999999999999926e-03 7.860529999999999795e+00 2.214960000000000040e+00 5.147730000000000139e+00 7.517149999999999999e+00 2.048729999999999940e+00 1.010214000000000034e+01 7.717719999999999914e+00 7.929109999999999658e+00 5.250079999999999636e+00 7.877889999999999837e+00 7.862440000000000317e+00 4.166000000000000258e-02 4.278000000000000136e-01 5.123170000000000002e+00 4.689289999999999736e+00 7.129000000000000614e-02 4.840889999999999915e+00 1.022122000000000064e+01 1.623300000000000021e-01 1.044683999999999990e+01 5.001619999999999955e+00 1.008365000000000045e+01 1.077504000000000062e+01 1.124600000000000044e-01 5.297299999999999898e+00 5.118879999999999875e+00 5.364830000000000432e+00 5.203570000000000029e+00 4.732160000000000366e+00 1.002799000000000085e+01 5.008429999999999715e+00 5.485000000000000292e-02 5.092990000000000350e+00 5.187140000000000306e+00 1.036633999999999922e+01 1.012166000000000032e+01 4.091380000000000017e+00 3.474639999999999951e+00 4.137679999999999580e+00 4.017500000000000071e+00 3.226989999999999803e+00 9.105529999999999902e+00 4.375479999999999592e+00 8.982509999999999550e+00 3.884250000000000203e+00 4.296630000000000393e+00 8.651120000000000587e+00 9.218460000000000321e+00 9.349579999999999558e+00 3.805619999999999781e+00 4.269580000000000375e+00 8.935750000000000526e+00 3.730609999999999982e+00 9.345169999999999533e+00 9.241239999999999455e+00 9.936439999999999273e+00 1.969819999999999904e+00 8.984320000000000306e+00 9.323370000000000601e+00 9.440759999999999152e+00 4.000399999999999956e+00 1.928879999999999928e+00 1.145590000000000108e+00 3.723129999999999828e+00 1.823299999999999921e+00 6.706739999999999924e+00 3.922470000000000123e+00 7.150330000000000297e+00 1.011940000000000062e+00 4.064269999999999605e+00 6.786539999999999573e+00 6.332160000000000011e+00 8.814870000000000871e+00 1.462390000000000079e+00 1.548399999999999999e+00 9.744799999999999685e+00 5.667629999999999946e+00 6.592209999999999681e+00 9.235419999999999519e+00 4.615059999999999718e+00 1.660979999999999901e+00 9.296929999999999694e+00 6.417390000000000150e+00 9.308690000000000353e+00 3.507200000000000095e+00 7.185599999999999765e-01 4.091879999999999740e+00 3.726480000000000015e+00 4.750199999999999978e-01 8.847509999999999764e+00 3.911249999999999893e+00 6.216219999999999857e+00 3.747770000000000046e+00 4.206909999999999705e+00 5.862449999999999939e+00 8.786310000000000286e+00 9.067069999999999297e+00 7.733299999999999619e-01 4.266610000000000014e+00 9.210800000000000765e+00 9.555500000000000105e-01 9.130340000000000344e+00 9.104319999999999524e+00 6.478349999999999831e+00 4.254019999999999690e+00 8.992919999999999803e+00 7.307120000000000282e+00 1.508219999999999894e+00 4.143159999999999954e+00 4.369130000000000180e+00 1.117879999999999985e+00 4.196790000000000020e+00 4.122799999999999798e+00 6.497679999999999900e+00 3.777229999999999865e+00 9.713480000000000558e+00 1.038969999999999949e+00 3.737729999999999997e+00 9.692099999999999937e+00 6.192709999999999937e+00 1.440139999999999976e+00 1.201799999999999979e+00 6.167939999999999756e+00 1.303979999999999917e+00 1.510539999999999994e+00 8.898529999999999163e+00 1.636609999999999898e+00 7.160040000000000404e+00 3.347859999999999836e+00 1.637729999999999908e+00 7.111740000000000173e+00 8.557219999999999160e+00 6.679219999999999935e+00 1.720869999999999900e+00 3.445219999999999949e+00 6.366329999999999600e+00 8.831099999999999506e-01 8.733010000000000161e+00 6.649619999999999642e+00 6.943649999999999878e+00 3.833940000000000126e+00 6.626430000000000042e+00 6.264759999999999884e+00 9.432930000000000703e+00 9.771699999999999831e-01 3.293070000000000164e+00 6.474299999999999500e-01 1.196260000000000101e+00 3.703930000000000167e+00 6.009159999999999613e+00 1.410139999999999949e+00 9.394470000000000098e+00 1.198299999999999921e+00 1.211060000000000025e+00 9.174580000000000624e+00 6.309520000000000017e+00 6.741799999999999571e+00 3.453460000000000196e+00 1.086659999999999959e+00 6.564350000000000129e+00 3.709249999999999936e+00 6.288090000000000401e+00 6.670449999999999768e+00 8.800060000000000215e+00 1.308840000000000003e+00 6.447750000000000092e+00 9.196300000000000807e+00 6.498680000000000234e+00 1.509560000000000013e+00 4.305229999999999890e+00 3.171240000000000059e+00 1.585180000000000033e+00 4.190999999999999837e+00 8.859080000000000510e+00 1.450099999999999945e+00 9.690390000000000725e+00 3.630389999999999784e+00 1.334670000000000023e+00 9.639789999999999637e+00 8.996669999999999945e+00 6.762529999999999930e+00 4.390049999999999564e+00 3.963200000000000056e+00 6.482750000000000234e+00 3.553869999999999862e+00 8.746650000000000702e+00 6.655590000000000117e+00 9.869440000000000879e+00 4.143589999999999662e+00 6.732669999999999710e+00 8.978310000000000457e+00 9.031280000000000641e+00 8.989599999999999813e-01 1.228429999999999911e+00 2.604470000000000063e+00 9.051230000000000331e+00 2.433370000000000033e+00 6.857990000000000030e+00 1.305560000000000054e+00 6.322440000000000282e+00 7.160199999999999898e-01 1.752629999999999910e+00 6.163780000000000037e+00 5.980150000000000077e+00 6.513980000000000103e+00 5.891999999999999460e-01 8.377200000000000202e-01 6.472859999999999836e+00 1.107539999999999969e+00 6.336129999999999818e+00 6.280170000000000030e+00 6.203920000000000101e+00 1.419270000000000032e+00 6.425130000000000230e+00 6.149040000000000283e+00 6.766370000000000218e+00
1.055900000000000033e-01 2.478050000000000086e+00 1.982429999999999914e+00 9.925079999999999458e+00 2.385279999999999845e+00 7.671219999999999928e+00 2.101600000000000135e-01 8.029920000000000613e+00 2.727440000000000087e+00 1.111700000000000049e-01 7.801300000000000345e+00 7.524189999999999934e+00 5.128619999999999735e+00 2.332019999999999982e+00 2.532919999999999838e+00 5.032869999999999955e+00 2.518209999999999837e+00 7.556739999999999569e+00 5.536590000000000344e+00 7.446439999999999948e+00 2.388240000000000141e+00 4.898369999999999891e+00 7.667320000000000135e+00 7.829220000000000290e+00 2.824520000000000142e+00 4.807039999999999758e+00 2.161519999999999886e+00 2.945209999999999884e+00 5.131029999999999980e+00 7.790259999999999962e+00 2.457139999999999880e+00 2.068800000000000083e-01 2.310939999999999994e+00 2.772580000000000044e+00 1.048507999999999996e+01 7.583770000000000344e+00 7.844350000000000378e+00 5.102730000000000210e+00 2.342890000000000139e+00 7.562100000000000044e+00 5.197960000000000136e+00 7.599059999999999704e+00 7.838009999999999700e+00 1.020758000000000010e+01 2.506270000000000220e+00 7.314420000000000144e+00 1.024597999999999942e+01 7.533459999999999823e+00 2.504199999999999982e+00 3.026899999999999924e+00 5.002659999999999663e+00 2.317120000000000068e+00 2.231120000000000214e+00 1.004831000000000074e+01 2.665709999999999802e+00 7.966879999999999740e+00 4.787480000000000402e+00 2.652410000000000156e+00 7.966350000000000264e+00 1.025577000000000005e+01 7.507410000000000139e+00 2.358969999999999789e+00 4.953890000000000349e+00 7.647610000000000241e+00 2.262030000000000207e+00 1.859999999999999848e-02 7.946250000000000036e+00 7.851409999999999556e+00 4.899090000000000167e+00 8.276730000000000587e+00 7.960359999999999658e+00 1.415700000000000014e-01 9.999320000000000874e+00 4.920149999999999579e+00 5.202480000000000437e+00 2.031399999999999872e-01 5.360789999999999722e+00 9.837820000000000675e+00 1.096899999999999958e-01 1.770400000000000029e-01 5.369489999999999874e+00 1.467299999999999993e-01 1.048568000000000033e+01 1.020457000000000036e+01 5.104490000000000194e+00 5.464080000000000048e+00 5.084719999999999906e+00 5.374329999999999607e+00 4.956570000000000142e+00 1.010136999999999929e+01 4.876019999999999577e+00 1.059398000000000017e+01 4.942219999999999835e+00 5.315010000000000012e+00 1.039578000000000024e+01 1.022926999999999964e+01 3.874260000000000037e+00 3.946569999999999911e+00 3.822950000000000070e+00 3.659320000000000128e+00 3.949910000000000032e+00 9.350509999999999877e+00 3.400739999999999874e+00 9.623070000000000235e+00 3.877689999999999859e+00 3.513720000000000176e+00 9.483879999999999200e+00 9.066509999999999181e+00 8.648749999999999716e+00 3.878709999999999880e+00 3.846760000000000179e+00 8.772629999999999484e+00 3.604439999999999866e+00 8.686249999999999361e+00 9.501279999999999504e+00 9.429470000000000240e+00 1.479670000000000041e+00 8.650479999999999947e+00 9.022449999999999193e+00 8.486330000000000595e+00 3.866429999999999811e+00 5.729100000000000303e-01 1.043800000000000061e+00 3.695320000000000160e+00 1.366060000000000052e+00 6.293529999999999625e+00 4.558349999999999902e+00 5.692859999999999587e+00 1.618130000000000068e+00 3.707180000000000142e+00 6.624460000000000015e+00 6.457290000000000418e+00 9.186230000000000118e+00 1.209389999999999965e+00 1.151149999999999896e+00 8.833080000000000709e+00 6.365120000000000111e+00 6.402829999999999799e+00 9.327650000000000219e+00 3.701070000000000082e+00 9.552800000000000180e-01 8.954179999999999140e+00 6.154700000000000060e+00 8.718059999999999476e+00 3.751199999999999868e+00 1.440190000000000081e+00 3.880599999999999827e+00 3.872160000000000046e+00 1.373159999999999936e+00 8.603109999999999147e+00 4.138819999999999943e+00 6.736769999999999925e+00 3.751840000000000064e+00 3.660369999999999902e+00 6.801249999999999574e+00 9.082390000000000185e+00 9.102899999999999991e+00 9.774100000000000010e-01 6.651119999999999699e+00 8.953490000000000393e+00 1.135899999999999910e+00 8.975390000000000867e+00 9.175240000000000506e+00 6.565310000000000201e+00 3.541119999999999823e+00 9.902990000000000848e+00 7.104250000000000398e+00 8.243599999999999817e-01 3.730280000000000040e+00 3.159629999999999939e+00 1.241120000000000001e+00 3.960960000000000036e+00 3.817989999999999995e+00 6.708719999999999573e+00 4.538330000000000197e+00 8.599420000000000286e+00 1.200239999999999974e+00 3.761950000000000127e+00 8.964359999999999218e+00 6.370969999999999800e+00 1.388710000000000111e+00 1.440660000000000052e+00 5.944939999999999891e+00 1.313309999999999977e+00 6.036200000000000454e-01 8.810439999999999827e+00 1.640209999999999946e+00 6.821170000000000400e+00 3.234259999999999913e+00 1.369220000000000104e+00 6.327770000000000117e+00 8.345520000000000493e+00 6.257089999999999819e+00 8.308499999999999774e-01 3.855840000000000156e+00 6.352789999999999715e+00 1.119220000000000104e+00 8.959110000000000795e+00 6.668879999999999697e+00 5.919740000000000002e+00 3.670170000000000154e+00 6.116360000000000241e+00 6.195450000000000124e+00 8.713290000000000646e+00 1.665550000000000086e+00 3.846169999999999867e+00 1.053169999999999940e+00 1.420860000000000012e+00 4.234630000000000116e+00 6.410689999999999777e+00 1.607050000000000090e+00 9.352869999999999351e+00 1.452010000000000023e+00 1.136370000000000102e+00 9.388909999999999201e+00 6.620689999999999742e+00 6.360769999999999591e+00 3.560579999999999856e+00 1.044240000000000057e+00 6.442929999999999602e+00 3.784790000000000099e+00 6.148649999999999949e+00 6.960420000000000051e+00 9.238310000000000244e+00 6.645600000000000396e-01 7.064289999999999736e+00 8.738690000000000069e+00 6.200470000000000148e+00 1.103809999999999958e+00 3.511210000000000164e+00 3.732920000000000016e+00 1.103979999999999961e+00 3.361040000000000028e+00 8.917469999999999786e+00 8.410699999999999843e-01 9.745200000000000529e+00 3.712169999999999970e+00 8.533800000000000274e-01 8.780480000000000729e+00 9.392210000000000392e+00 6.462040000000000006e+00 3.322090000000000209e+00 3.208530000000000104e+00 6.527319999999999567e+00 3.559839999999999893e+00 8.770189999999999486e+00 6.409849999999999604e+00 8.768000000000000682e+00 3.680029999999999912e+00 6.061740000000000350e+00 9.092150000000000176e+00 8.586169999999999192e+00 9.285429999999999851e+00 9.335599999999999454e-01 3.713429999999999787e+00 9.042699999999999960e+00 3.687609999999999832e+00 6.296649999999999636e+00 1.968460000000000099e+00 6.285000000000000142e+00 5.292999999999999927e-01 1.280820000000000070e+00 7.118079999999999963e+00 5.975579999999999892e+00 6.388530000000000264e+00 9.316299999999999581e-01 1.470699999999999896e+00 6.219260000000000232e+00 1.106379999999999919e+00 6.264289999999999914e+00 7.160330000000000084e+00 6.622060000000000279e+00 1.203640000000000043e+00 6.072219999999999729e+00 6.496749999999999581e+00 6.591409999999999769e+00