2.619559999999999889e+00 1.021016999999999975e+01 2.696629999999999860e+00 2.743329999999999824e+00 1.022786999999999935e+01 8.003679999999999239e+00 2.649070000000000036e+00 5.276740000000000208e+00 2.559299999999999908e+00 2.755430000000000046e+00 5.176610000000000156e+00 7.880889999999999951e+00 6.349999999999999742e-03 2.494650000000000034e+00 2.177490000000000148e+00 1.322099999999999942e-01 2.649789999999999868e+00 7.715510000000000090e+00 1.879099999999999937e-01 7.721110000000000362e+00 2.367269999999999985e+00 1.281999999999999980e-02 7.709389999999999965e+00 7.342109999999999914e+00 7.734060000000000379e+00 2.410699999999999843e+00 5.024200000000000443e+00 7.885180000000000078e+00 2.552950000000000053e+00 1.017140000000000022e+01 7.910650000000000404e+00 7.604969999999999786e+00 4.877620000000000289e+00 7.769610000000000127e+00 7.605139999999999567e+00 1.009960000000000058e+01 4.954310000000000436e+00 5.212200000000000166e+00 5.184309999999999974e+00 5.111699999999999910e+00 4.910960000000000214e+00 3.189000000000000168e-02 5.091310000000000002e+00 1.002645000000000053e+01 5.185749999999999638e+00 4.962110000000000021e+00 1.017666999999999966e+01 1.972099999999999964e-01 5.228030000000000399e+00 2.636730000000000018e+00 2.188860000000000028e+00 5.012500000000000178e+00 2.402639999999999887e+00 7.389850000000000030e+00 4.830059999999999576e+00 7.378630000000000244e+00 2.330010000000000137e+00 5.009339999999999904e+00 7.693089999999999762e+00 7.653109999999999857e+00 7.944449999999999790e+00 5.075639999999999930e+00 2.716520000000000046e+00 7.804899999999999949e+00 5.014230000000000409e+00 7.860879999999999868e+00 7.782969999999999722e+00 9.989900000000000446e+00 2.610510000000000108e+00 7.669480000000000075e+00 1.011457000000000050e+01 7.980819999999999581e+00 3.806999999999999967e-02 4.905000000000000332e-02 5.251470000000000304e+00 9.948100000000000165e+00 1.006616999999999962e+01 1.036919999999999931e+01 1.003156000000000070e+01 5.073760000000000048e+00 5.359630000000000116e+00 1.584399999999999975e-01 5.298600000000000421e+00 1.419100000000000084e-01 2.534930000000000128e+00 2.500640000000000196e+00 4.840849999999999653e+00 2.747739999999999849e+00 2.651190000000000158e+00 1.028589999999999982e+01 2.619019999999999904e+00 7.781649999999999956e+00 5.113800000000000345e+00 2.775189999999999824e+00 7.725159999999999805e+00 1.012599999999999945e+01 8.919669999999999987e+00 4.097579999999999778e+00 1.142409999999999926e+00 8.807320000000000704e+00 3.771040000000000170e+00 6.357850000000000001e+00 8.414930000000000021e+00 8.947929999999999495e+00 9.919799999999999729e-01 8.852399999999999380e+00 8.582869999999999777e+00 6.225819999999999688e+00 4.007049999999999557e+00 1.123909999999999965e+00 4.086769999999999570e+00 4.024479999999999613e+00 1.246410000000000018e+00 9.205199999999999605e+00 4.035009999999999764e+00 6.317689999999999806e+00 3.871570000000000178e+00 4.129269999999999996e+00 6.476899999999999658e+00 9.221450000000000813e+00 3.944380000000000219e+00 3.707120000000000193e+00 3.635349999999999859e+00 4.174310000000000187e+00 4.120599999999999596e+00 8.873379999999999157e+00 3.964370000000000172e+00 8.915779999999999816e+00 3.781810000000000116e+00 4.099840000000000373e+00 9.024380000000000734e+00 8.975270000000000081e+00 8.977080000000000837e+00 1.188730000000000064e+00 9.283400000000000540e-01 8.922739999999999227e+00 1.037220000000000031e+00 6.350999999999999979e+00 8.925499999999999545e+00 6.483109999999999928e+00 1.345550000000000024e+00 8.637399999999999523e+00 6.293859999999999566e+00 6.537729999999999819e+00 9.313779999999999504e+00 3.802700000000000191e+00 3.585049999999999848e+00 9.049239999999999284e+00 3.742659999999999876e+00 8.890409999999999258e+00 9.147289999999999921e+00 8.866390000000000882e+00 3.830630000000000202e+00 9.174519999999999342e+00 8.981479999999999464e+00 8.786030000000000229e+00 3.697499999999999787e+00 1.404900000000000038e+00 1.130540000000000100e+00 3.393679999999999808e+00 1.075870000000000104e+00 6.363299999999999734e+00 3.598520000000000163e+00 6.385900000000000354e+00 1.155270000000000019e+00 3.388939999999999841e+00 6.253709999999999880e+00 6.429439999999999600e+00 1.689219999999999944e+00 1.933009999999999895e+00 3.064810000000000034e+00 1.985370000000000079e+00 2.089139999999999997e+00 8.283530000000000726e+00 1.694479999999999986e+00 6.818649999999999878e+00 3.249439999999999884e+00 1.740520000000000067e+00 7.150540000000000340e+00 8.474709999999999965e+00 6.102360000000000007e+00 6.375499999999999501e-01 1.822990000000000110e+00 5.997810000000000308e+00 5.472299999999999942e-01 6.981049999999999756e+00 5.991019999999999790e+00 5.664390000000000036e+00 1.946520000000000028e+00 6.178790000000000227e+00 5.765579999999999927e+00 6.757109999999999950e+00 6.864679999999999893e+00 5.362400000000000500e-01 4.437809999999999810e+00 6.911030000000000229e+00 5.846799999999999775e-01 9.711579999999999657e+00 7.056530000000000413e+00 5.922769999999999868e+00 4.437389999999999723e+00 6.700990000000000002e+00 5.749579999999999913e+00 9.687079999999999913e+00 6.283960000000000434e+00 3.330039999999999889e+00 6.834599999999999564e-01 6.307970000000000077e+00 3.208349999999999813e+00 5.836619999999999919e+00 5.610299999999999621e+00 8.091169999999999973e+00 3.352299999999999724e-01 9.186949999999999505e+00 1.112470000000000070e+00 3.603650000000000020e+00 9.094559999999999533e+00 1.259309999999999929e+00 9.057809999999999917e+00 9.375519999999999854e+00 6.552539999999999587e+00 3.860129999999999839e+00 9.017960000000000420e+00 6.556090000000000195e+00 8.975009999999999266e+00 6.772109999999999630e+00 3.352170000000000094e+00 3.309190000000000076e+00 6.655940000000000190e+00 3.150780000000000136e+00 8.369270000000000209e+00 6.574119999999999742e+00 8.347200000000000841e+00 3.195390000000000175e+00 6.866909999999999847e+00 8.332850000000000534e+00 8.628840000000000288e+00 1.148660000000000014e+00 1.984769999999999923e+00 4.358899999999999997e-01 8.101000000000000423e-01 2.026499999999999968e+00 5.845690000000000275e+00 1.232380000000000031e+00 7.107739999999999725e+00 8.083599999999999675e-01 1.008299999999999974e+00 6.796140000000000292e+00 5.896770000000000067e+00 1.664250000000000007e+00 4.562170000000000059e+00 4.348510000000000097e+00 1.831760000000000055e+00 4.456439999999999735e+00 9.905879999999999797e+00 1.675189999999999957e+00 9.436759999999999593e+00 4.326679999999999637e+00 1.556449999999999889e+00 9.471489999999999299e+00 9.708560000000000301e+00 1.048780000000000046e+00 4.205720000000000347e+00 1.589390000000000081e+00 9.210300000000000153e-01 4.707620000000000360e+00 7.381319999999999659e+00 8.327799999999999647e-01 9.660439999999999472e+00 1.445489999999999942e+00 1.179200000000000026e+00 9.338689999999999714e+00 6.802990000000000315e+00 3.671839999999999993e+00 3.860590000000000188e+00 1.217419999999999947e+00 3.674539999999999917e+00 3.583079999999999821e+00 6.450610000000000177e+00 3.339210000000000012e+00 9.241220000000000212e+00 1.172609999999999930e+00 3.807360000000000078e+00 8.877969999999999473e+00 6.577460000000000306e+00
2.797270000000000145e+00 1.013927999999999940e+01 2.690030000000000143e+00 2.665950000000000042e+00 2.963000000000000009e-02 7.736150000000000304e+00 2.818259999999999987e+00 5.122049999999999770e+00 2.672089999999999854e+00 2.733560000000000212e+00 5.068459999999999965e+00 7.795469999999999899e+00 2.910000000000000087e-02 2.602339999999999876e+00 2.253909999999999858e+00 9.981490000000000862e+00 2.542949999999999822e+00 7.671249999999999680e+00 8.758000000000000507e-02 7.556980000000000253e+00 2.171899999999999942e+00 1.078999999999999959e-01 7.451340000000000074e+00 7.506190000000000140e+00 7.719219999999999970e+00 2.590279999999999916e+00 4.835379999999999789e+00 7.747790000000000177e+00 2.231289999999999996e+00 1.037831000000000081e+01 7.726670000000000371e+00 7.493070000000000341e+00 5.001350000000000406e+00 7.757909999999999862e+00 7.536030000000000229e+00 1.010651000000000010e+01 4.974470000000000169e+00 5.218140000000000001e+00 5.292830000000000368e+00 5.080149999999999721e+00 4.977079999999999949e+00 1.044261999999999979e+01 5.053810000000000358e+00 4.266999999999999960e-02 5.120070000000000121e+00 4.953700000000000436e+00 1.015328000000000053e+01 4.890000000000000249e-03 4.978690000000000282e+00 2.576029999999999820e+00 2.324930000000000163e+00 5.020830000000000126e+00 2.360500000000000043e+00 7.633449999999999847e+00 5.078520000000000145e+00 7.636619999999999742e+00 2.310020000000000184e+00 5.127379999999999605e+00 7.775940000000000296e+00 7.333510000000000417e+00 7.751800000000000246e+00 5.110549999999999926e+00 2.603180000000000049e+00 7.739390000000000214e+00 4.866469999999999629e+00 7.912759999999999572e+00 7.808679999999999843e+00 9.975089999999999790e+00 2.558269999999999822e+00 7.773520000000000429e+00 1.000713999999999970e+01 7.920609999999999928e+00 9.897710000000000008e+00 6.815999999999999837e-02 5.115429999999999922e+00 1.344899999999999984e-01 1.014498000000000033e+01 1.045960999999999963e+01 1.001966000000000001e+01 4.992049999999999876e+00 5.291129999999999889e+00 4.529999999999999999e-02 5.068769999999999776e+00 1.046901000000000082e+01 2.562040000000000095e+00 2.591359999999999886e+00 4.876079999999999970e+00 2.684950000000000170e+00 2.390690000000000204e+00 1.030880999999999936e+01 2.580360000000000209e+00 7.746769999999999712e+00 4.806860000000000355e+00 2.871529999999999916e+00 7.706710000000000171e+00 1.014570999999999934e+01 8.586529999999999774e+00 3.905899999999999928e+00 1.102629999999999999e+00 8.650159999999999627e+00 3.734719999999999818e+00 6.351029999999999731e+00 8.810639999999999361e+00 8.995229999999999393e+00 1.088479999999999892e+00 8.670870000000000744e+00 8.880269999999999442e+00 6.307800000000000296e+00 4.099980000000000402e+00 1.356430000000000025e+00 3.711590000000000167e+00 3.930930000000000035e+00 1.181999999999999940e+00 9.065860000000000696e+00 4.197409999999999641e+00 6.532020000000000159e+00 3.848629999999999995e+00 4.163409999999999833e+00 4.071649999999999991e+00 3.820390000000000175e+00 3.933180000000000121e+00 3.826330000000000009e+00 9.185349999999999682e+00 4.317540000000000155e+00 8.960219999999999629e+00 3.741969999999999796e+00 4.367840000000000167e+00 8.829359999999999431e+00 8.990980000000000416e+00 8.727539999999999409e+00 1.257619999999999960e+00 1.226509999999999989e+00 8.475749999999999673e+00 1.282969999999999944e+00 6.651340000000000252e+00 8.824460000000000193e+00 6.326430000000000220e+00 1.294799999999999951e+00 8.892179999999999751e+00 6.243310000000000137e+00 6.589019999999999655e+00 9.186899999999999622e+00 3.918789999999999996e+00 3.644919999999999938e+00 9.085829999999999629e+00 3.875869999999999926e+00 9.100910000000000721e+00 9.122320000000000206e+00 8.974030000000000840e+00 3.870610000000000106e+00 9.193350000000000577e+00 8.834920000000000329e+00 9.116680000000000561e+00 3.711320000000000174e+00 1.121809999999999974e+00 1.142819999999999947e+00 3.352129999999999832e+00 1.180449999999999999e+00 6.183460000000000178e+00 3.701290000000000191e+00 6.378099999999999881e+00 1.126360000000000028e+00 3.562940000000000218e+00 6.366880000000000095e+00 6.328210000000000335e+00 1.893259999999999943e+00 2.240499999999999936e+00 2.866769999999999818e+00 1.594410000000000105e+00 1.834340000000000082e+00 8.287919999999999732e+00 1.907370000000000010e+00 7.136009999999999742e+00 3.086759999999999948e+00 1.955559999999999965e+00 7.066180000000000128e+00 8.343769999999999243e+00 6.218239999999999768e+00 8.912600000000000522e-01 1.668020000000000058e+00 5.653100000000000236e+00 3.724199999999999733e-01 7.089599999999999902e+00 5.860850000000000115e+00 5.664119999999999600e+00 1.779160000000000075e+00 5.906589999999999563e+00 5.813340000000000174e+00 7.163319999999999688e+00 6.850850000000000328e+00 6.299400000000000555e-01 4.320219999999999949e+00 6.746419999999999639e+00 7.058299999999999574e-01 9.579319999999999169e+00 6.870739999999999625e+00 5.512780000000000236e+00 4.513729999999999798e+00 6.891759999999999664e+00 5.540630000000000166e+00 9.761969999999999814e+00 5.890039999999999942e+00 3.171530000000000182e+00 5.207000000000000517e-01 5.947440000000000282e+00 2.806490000000000151e+00 5.738360000000000127e+00 6.146390000000000242e+00 8.547180000000000888e+00 5.290700000000000403e-01 5.990129999999999733e+00 8.254149999999999210e+00 5.741699999999999804e+00 9.201639999999999375e+00 1.253619999999999957e+00 3.621480000000000032e+00 8.998760000000000758e+00 1.202090000000000103e+00 9.151949999999999363e+00 9.141260000000000829e+00 6.503700000000000259e+00 3.853029999999999955e+00 9.208140000000000214e+00 6.383930000000000327e+00 9.085350000000000037e+00 6.721000000000000085e+00 3.174119999999999830e+00 3.256349999999999856e+00 6.658360000000000056e+00 3.169500000000000206e+00 8.351570000000000604e+00 6.831109999999999793e+00 8.089150000000000063e+00 3.238500000000000156e+00 6.836039999999999672e+00 8.091870000000000118e+00 8.387449999999999406e+00 8.960200000000000387e-01 1.784010000000000096e+00 5.897299999999999764e-01 6.771399999999999642e-01 2.170809999999999906e+00 5.618870000000000253e+00 1.000189999999999912e+00 6.840309999999999668e+00 5.503400000000000514e-01 1.080719999999999903e+00 6.904720000000000191e+00 5.757629999999999804e+00 1.868079999999999963e+00 4.589290000000000092e+00 4.524919999999999831e+00 1.578529999999999989e+00 4.076579999999999870e+00 9.416779999999999262e+00 1.864130000000000065e+00 9.558709999999999596e+00 4.380899999999999572e+00 1.868160000000000043e+00 9.469530000000000669e+00 9.654469999999999885e+00 1.052829999999999933e+00 4.547010000000000218e+00 1.798710000000000031e+00 8.682400000000000118e-01 4.521139999999999937e+00 7.088860000000000383e+00 1.032559999999999922e+00 9.385229999999999961e+00 1.661999999999999922e+00 9.860999999999999766e-01 9.579390000000000072e+00 6.821410000000000196e+00 3.628120000000000012e+00 3.799879999999999924e+00 1.257209999999999939e+00 3.759780000000000122e+00 3.595880000000000187e+00 6.594079999999999941e+00 3.794840000000000213e+00 8.904270000000000351e+00 1.168630000000000058e+00 3.710030000000000161e+00 8.963800000000000878e+00 6.490619999999999834e+00
2.697039999999999882e+00 9.940000000000000224e-02 2.737880000000000091e+00 2.708839999999999915e+00 2.509000000000000119e-02 8.009309999999999263e+00 2.853769999999999918e+00 5.135979999999999990e+00 2.638520000000000199e+00 2.808469999999999800e+00 4.989709999999999646e+00 8.179909999999999570e+00 6.306000000000000494e-02 2.749659999999999993e+00 2.217999999999999972e+00 1.014123999999999981e+01 2.430719999999999992e+00 7.493619999999999948e+00 2.770400000000000085e-01 7.663820000000000299e+00 2.334890000000000132e+00 1.015834000000000081e+01 7.615079999999999849e+00 7.564429999999999765e+00 7.815529999999999866e+00 2.626809999999999867e+00 4.856139999999999901e+00 7.751900000000000013e+00 2.614129999999999843e+00 1.023841000000000001e+01 7.906670000000000087e+00 7.695479999999999876e+00 4.892019999999999591e+00 7.599669999999999703e+00 7.566550000000000331e+00 1.020580999999999960e+01 4.928869999999999862e+00 5.157329999999999970e+00 5.420180000000000220e+00 5.077270000000000394e+00 5.100249999999999950e+00 1.060515999999999970e+01 5.063649999999999984e+00 1.024422000000000033e+01 5.395819999999999617e+00 5.048750000000000071e+00 1.015112000000000059e+01 1.057540999999999976e+01 5.059829999999999828e+00 2.257629999999999804e+00 2.411579999999999835e+00 5.305180000000000007e+00 2.516509999999999803e+00 7.411699999999999733e+00 4.841529999999999667e+00 7.679149999999999920e+00 2.413920000000000066e+00 5.070920000000000094e+00 7.512179999999999858e+00 7.643620000000000303e+00 7.723580000000000112e+00 5.125890000000000057e+00 2.548789999999999889e+00 7.892929999999999779e+00 4.980400000000000382e+00 7.873619999999999841e+00 7.965300000000000047e+00 9.940820000000000434e+00 2.573749999999999982e+00 7.883469999999999978e+00 1.014171999999999940e+01 7.780840000000000423e+00 1.014464000000000077e+01 8.712999999999999912e-02 5.311480000000000423e+00 1.014813999999999972e+01 1.404900000000000038e-01 1.998000000000000054e-01 1.014034000000000013e+01 5.149980000000000224e+00 5.320330000000000226e+00 1.012174000000000085e+01 5.249319999999999986e+00 1.055531000000000041e+01 2.678729999999999833e+00 2.676289999999999836e+00 4.950580000000000425e+00 2.650949999999999918e+00 2.446029999999999927e+00 1.013471000000000011e+01 2.737330000000000041e+00 7.709459999999999980e+00 4.991279999999999717e+00 2.913400000000000212e+00 7.729610000000000092e+00 1.018271000000000015e+01 8.872429999999999595e+00 3.907090000000000174e+00 1.120170000000000110e+00 8.888099999999999667e+00 3.730999999999999872e+00 6.293180000000000440e+00 9.033419999999999561e+00 8.915100000000000691e+00 1.043700000000000072e+00 8.943669999999999121e+00 8.877230000000000842e+00 6.205969999999999764e+00 4.134269999999999889e+00 1.183629999999999960e+00 4.061110000000000220e+00 4.216709999999999958e+00 1.257489999999999997e+00 9.049419999999999575e+00 4.289729999999999599e+00 6.432019999999999627e+00 3.979680000000000106e+00 4.087839999999999918e+00 3.793689999999999785e+00 3.726669999999999927e+00 4.145550000000000068e+00 3.601780000000000204e+00 9.009439999999999671e+00 4.230789999999999829e+00 9.023279999999999745e+00 3.974759999999999849e+00 4.267360000000000042e+00 8.784319999999999240e+00 9.104219999999999757e+00 8.480489999999999640e+00 1.238520000000000065e+00 1.045360000000000067e+00 8.855959999999999610e+00 1.184679999999999955e+00 6.405689999999999884e+00 8.675660000000000593e+00 6.284980000000000011e+00 1.004019999999999913e+00 8.848720000000000141e+00 6.258180000000000298e+00 6.644009999999999749e+00 9.272280000000000300e+00 3.921180000000000110e+00 3.681509999999999838e+00 9.162470000000000780e+00 3.854800000000000004e+00 9.013640000000000541e+00 9.275800000000000267e+00 9.064339999999999620e+00 3.752079999999999860e+00 9.239499999999999602e+00 9.350300000000000722e+00 9.299200000000000799e+00 3.540719999999999867e+00 1.399149999999999894e+00 1.217389999999999972e+00 3.574640000000000040e+00 1.124290000000000012e+00 6.438189999999999635e+00 3.578759999999999941e+00 6.408369999999999678e+00 1.165089999999999959e+00 3.663250000000000117e+00 6.358460000000000001e+00 6.557120000000000282e+00 1.946600000000000108e+00 1.957009999999999916e+00 3.199669999999999792e+00 1.599169999999999980e+00 1.792580000000000062e+00 8.360200000000000742e+00 1.988650000000000029e+00 7.003239999999999910e+00 3.238290000000000113e+00 1.864829999999999988e+00 6.979529999999999568e+00 8.588380000000000791e+00 6.150979999999999670e+00 3.811599999999999988e-01 1.887240000000000029e+00 6.162639999999999674e+00 7.459000000000000075e-01 7.046170000000000044e+00 5.710840000000000138e+00 5.757080000000000197e+00 1.928169999999999940e+00 6.013589999999999769e+00 5.734950000000000436e+00 6.892190000000000261e+00 6.584019999999999762e+00 8.711100000000000509e-01 4.318369999999999820e+00 6.819289999999999630e+00 3.436100000000000265e-01 9.664569999999999439e+00 7.127830000000000332e+00 5.890710000000000335e+00 4.353570000000000384e+00 6.929429999999999978e+00 5.520400000000000418e+00 9.638560000000000016e+00 5.926499999999999879e+00 3.234620000000000051e+00 3.251700000000000146e-01 6.206540000000000390e+00 3.376720000000000166e+00 5.553040000000000198e+00 5.963960000000000150e+00 7.933639999999999581e+00 5.934099999999999930e-01 6.184580000000000410e+00 8.263909999999999201e+00 5.745300000000000296e+00 9.353960000000000719e+00 1.348240000000000105e+00 3.804339999999999833e+00 8.984199999999999520e+00 1.436690000000000023e+00 8.828290000000000859e+00 9.318260000000000431e+00 6.442669999999999675e+00 3.440549999999999997e+00 9.176500000000000767e+00 6.455799999999999983e+00 9.021950000000000358e+00 6.727699999999999569e+00 3.157239999999999824e+00 3.083899999999999864e+00 6.851359999999999673e+00 3.136029999999999873e+00 8.405730000000000146e+00 6.801070000000000171e+00 8.300959999999999894e+00 3.089960000000000040e+00 6.840200000000000280e+00 8.067550000000000665e+00 8.423239999999999839e+00 9.914800000000000280e-01 1.941009999999999902e+00 5.743700000000000472e-01 1.007220000000000004e+00 1.775470000000000104e+00 5.621900000000000119e+00 1.037649999999999961e+00 7.037410000000000387e+00 5.682700000000000529e-01 8.577599999999999669e-01 7.192479999999999762e+00 5.705090000000000217e+00 1.743489999999999984e+00 4.545180000000000220e+00 4.419369999999999798e+00 1.699529999999999985e+00 4.308699999999999974e+00 9.729739999999999611e+00 1.730529999999999902e+00 9.532659999999999911e+00 4.503739999999999633e+00 2.018250000000000099e+00 9.781340000000000146e+00 9.776939999999999742e+00 9.432099999999999929e-01 4.505099999999999660e+00 1.750729999999999897e+00 1.079669999999999908e+00 4.555200000000000138e+00 7.093020000000000103e+00 9.234799999999999676e-01 9.727299999999999613e+00 2.009450000000000180e+00 9.016100000000000225e-01 9.674670000000000769e+00 7.387620000000000076e+00 3.835430000000000117e+00 3.919130000000000003e+00 1.052510000000000057e+00 3.683149999999999924e+00 3.613399999999999945e+00 6.400920000000000165e+00 3.599330000000000140e+00 9.041689999999999117e+00 1.346209999999999907e+00 3.786999999999999922e+00 8.911670000000000869e+00 6.741660000000000430e+00
2.851230000000000153e+00 3.862999999999999767e-02 2.587439999999999962e+00 2.714630000000000098e+00 1.025103999999999971e+01 8.009029999999999205e+00 2.738280000000000047e+00 5.140080000000000204e+00 2.781519999999999992e+00 2.576999999999999957e+00 5.212460000000000093e+00 7.987870000000000026e+00 3.294199999999999906e-01 2.748029999999999973e+00 2.386480000000000157e+00 9.985739999999999839e+00 2.595429999999999904e+00 7.634780000000000122e+00 1.008888999999999925e+01 7.548980000000000246e+00 2.361790000000000056e+00 1.315099999999999880e-01 7.753309999999999924e+00 7.652120000000000033e+00 7.783150000000000013e+00 2.524179999999999868e+00 4.854589999999999961e+00 7.761519999999999975e+00 2.361139999999999795e+00 1.032060000000000066e+01 7.596429999999999794e+00 7.503759999999999764e+00 5.159290000000000376e+00 7.807870000000000310e+00 7.651089999999999947e+00 1.027280000000000015e+01 5.113380000000000258e+00 5.156080000000000219e+00 5.380779999999999674e+00 4.848200000000000287e+00 5.142830000000000013e+00 1.029000000000000054e-02 5.156270000000000131e+00 1.018623999999999974e+01 5.402149999999999785e+00 5.053149999999999586e+00 1.000728999999999935e+01 1.022869999999999990e+01 4.984370000000000189e+00 2.571050000000000058e+00 2.197670000000000012e+00 5.061370000000000147e+00 2.596109999999999918e+00 7.540370000000000239e+00 5.175340000000000273e+00 7.761840000000000295e+00 2.348500000000000032e+00 5.134319999999999773e+00 7.515930000000000000e+00 7.581940000000000346e+00 7.840250000000000163e+00 5.033350000000000435e+00 2.583790000000000031e+00 8.118560000000000443e+00 4.998879999999999768e+00 7.947540000000000049e+00 7.766980000000000217e+00 3.982999999999999735e-02 2.725670000000000037e+00 7.857190000000000119e+00 1.017723999999999940e+01 7.982400000000000162e+00 1.322699999999999987e-01 1.012484000000000073e+01 5.226289999999999658e+00 1.011328999999999922e+01 1.028964000000000034e+01 1.653900000000000092e-01 1.882800000000000029e-01 5.488439999999999763e+00 5.230019999999999669e+00 5.816000000000000336e-02 5.149689999999999657e+00 1.060513000000000083e+01 2.582809999999999828e+00 2.427059999999999995e+00 5.155190000000000161e+00 2.731580000000000119e+00 2.575899999999999856e+00 1.027280000000000015e+01 2.702949999999999964e+00 7.759319999999999773e+00 4.679369999999999585e+00 2.643419999999999881e+00 7.875359999999999694e+00 1.026859999999999928e+01 8.969070000000000320e+00 3.641509999999999803e+00 1.157380000000000075e+00 8.972269999999999968e+00 3.906579999999999941e+00 6.524099999999999788e+00 8.594219999999999970e+00 8.845290000000000319e+00 1.150549999999999962e+00 8.595549999999999358e+00 8.913439999999999586e+00 5.966849999999999987e+00 4.154499999999999638e+00 1.456879999999999953e+00 3.918709999999999916e+00 4.208409999999999762e+00 1.195429999999999993e+00 9.180509999999999948e+00 4.468370000000000175e+00 6.452219999999999622e+00 3.908770000000000078e+00 3.988140000000000018e+00 6.346429999999999794e+00 8.991300000000000736e+00 4.279010000000000424e+00 4.030719999999999636e+00 3.468900000000000095e+00 3.908840000000000092e+00 3.621490000000000098e+00 9.151389999999999247e+00 4.018749999999999822e+00 9.103320000000000078e+00 3.847020000000000106e+00 4.115389999999999660e+00 9.080890000000000128e+00 8.807050000000000267e+00 8.888489999999999114e+00 1.292410000000000059e+00 1.186039999999999983e+00 8.713290000000000646e+00 1.333429999999999893e+00 6.601939999999999920e+00 8.815300000000000580e+00 6.325059999999999683e+00 1.168639999999999901e+00 8.745699999999999363e+00 6.348309999999999675e+00 6.445479999999999876e+00 9.260059999999999292e+00 3.612449999999999939e+00 3.747930000000000206e+00 9.185990000000000322e+00 3.600429999999999797e+00 9.259520000000000195e+00 9.425399999999999778e+00 9.058490000000000819e+00 3.483499999999999819e+00 9.298830000000000595e+00 8.836230000000000473e+00 9.063069999999999737e+00 3.745080000000000187e+00 1.342009999999999925e+00 1.092640000000000056e+00 3.768870000000000164e+00 1.290010000000000101e+00 6.772050000000000125e+00 3.606329999999999814e+00 6.538100000000000023e+00 1.013789999999999969e+00 3.839269999999999960e+00 6.513630000000000031e+00 6.263959999999999972e+00 1.550380000000000091e+00 1.625240000000000018e+00 3.452820000000000000e+00 1.736620000000000053e+00 1.795360000000000067e+00 8.543670000000000542e+00 1.892409999999999926e+00 6.958109999999999573e+00 3.030800000000000161e+00 1.755139999999999922e+00 7.174210000000000420e+00 8.233629999999999782e+00 6.368350000000000399e+00 7.728399999999999714e-01 1.717559999999999976e+00 6.175910000000000011e+00 4.082000000000000073e-01 7.068249999999999922e+00 5.857050000000000090e+00 5.799900000000000055e+00 1.806110000000000104e+00 6.491069999999999673e+00 5.953039999999999665e+00 7.031909999999999883e+00 6.937529999999999752e+00 5.274799999999999489e-01 4.640209999999999724e+00 6.832370000000000054e+00 5.156800000000000272e-01 9.550209999999999866e+00 7.221940000000000026e+00 5.733970000000000233e+00 4.476250000000000284e+00 6.853130000000000166e+00 5.510229999999999961e+00 9.926119999999999166e+00 5.900850000000000151e+00 3.340019999999999989e+00 5.774099999999999788e-01 6.135559999999999903e+00 3.380009999999999959e+00 5.794299999999999784e+00 6.233439999999999870e+00 8.448760000000000048e+00 6.124100000000000099e-01 9.051119999999999166e+00 1.399550000000000072e+00 3.783520000000000216e+00 9.296499999999999986e+00 1.076610000000000067e+00 9.094519999999999271e+00 9.462210000000000676e+00 6.465440000000000076e+00 3.705859999999999932e+00 9.326420000000000599e+00 6.501409999999999911e+00 9.135830000000000339e+00 6.751210000000000377e+00 3.353479999999999794e+00 3.092490000000000183e+00 6.714089999999999669e+00 3.179370000000000029e+00 8.563929999999999154e+00 6.663669999999999760e+00 8.534129999999999328e+00 3.232270000000000199e+00 6.814659999999999940e+00 8.139400000000000190e+00 8.359980000000000189e+00 1.295500000000000096e+00 1.852240000000000109e+00 8.031899999999999595e-01 9.477299999999999613e-01 2.022110000000000074e+00 6.022569999999999979e+00 1.085059999999999913e+00 7.091359999999999886e+00 4.541000000000000036e-01 8.717300000000000049e-01 7.702799999999999869e+00 5.548829999999999707e+00 1.818689999999999918e+00 4.452530000000000321e+00 4.394739999999999647e+00 1.750879999999999992e+00 4.670899999999999608e+00 9.691679999999999851e+00 1.895199999999999996e+00 9.651880000000000237e+00 4.369570000000000398e+00 1.766710000000000003e+00 9.727539999999999409e+00 9.802799999999999514e+00 8.918800000000000061e-01 4.679549999999999876e+00 1.830259999999999998e+00 9.779499999999999860e-01 4.944600000000000328e+00 7.009859999999999758e+00 1.006219999999999892e+00 9.336970000000000880e+00 1.572910000000000030e+00 9.757200000000000317e-01 9.703099999999999170e+00 7.079690000000000261e+00 3.416859999999999786e+00 3.839150000000000063e+00 1.165399999999999991e+00 3.587520000000000042e+00 3.921860000000000124e+00 6.431600000000000428e+00 3.693389999999999951e+00 9.156470000000000553e+00 1.186690000000000023e+00 3.817680000000000184e+00 9.044190000000000396e+00 6.564729999999999954e+00