3.431458000000000119e+00 5.793279000000000067e+00 1.949935999999999892e+00 -3.382580000000000031e-01 -8.730719999999999592e-01 1.234999999999999987e-03 -2.180938999999999961e+00 2.757269999999999999e-01 1.931219999999999937e+00 -1.204782999999999937e+00 -9.185400000000000509e-02 4.345080000000000053e-01 -1.513400000000000023e-01 2.678820000000000090e-01 1.830961000000000061e+00 3.694112000000000062e+00 -5.691341999999999679e+00 -2.720899000000000179e+00 -1.331606000000000067e+00 -7.772339999999999804e-01 8.157100000000000461e-02 2.908783999999999814e+00 3.942140000000000088e-01 3.746304999999999996e+00 3.877686999999999884e+00 1.931284000000000001e+00 -1.751206000000000040e+00 -2.849917000000000034e+00 -1.641893000000000047e+00 2.009459999999999802e+00 5.534399999999999736e-02 3.460522999999999794e+00 -3.782360000000000166e+00 -3.135240000000000249e-01 -4.705119999999999858e-01 2.376729999999999954e-01 2.924209999999999865e-01 -3.257459999999999800e-01 5.721079999999999499e-01 -3.161070000000000269e-01 3.950859999999999927e-01 -9.133080000000000087e-01 7.166999999999999760e-03 2.267339999999999911e-01 -6.119379999999999820e-01 -1.391543999999999892e+00 -4.279213000000000378e+00 -6.190590000000000259e-01 3.456096000000000057e+00 1.429632999999999932e+00 1.635945999999999900e+00 -2.154969999999999941e-01 -2.097230000000000150e+00 -1.231886999999999954e+00 1.213233999999999924e+00 -7.264540000000000441e-01 1.979657999999999918e+00 -2.578492999999999924e+00 2.660625000000000018e+00 1.590146000000000059e+00 2.310321000000000069e+00 2.934995999999999938e+00 -1.364158999999999899e+00 2.391068999999999889e+00 8.533290000000000042e-01 4.947289999999999743e-01 5.449907999999999753e+00 2.307080000000000020e+00 8.325090000000000545e-01 -3.013876000000000221e+00 -2.649967000000000183e+00 -1.634760000000000102e-01 3.928050000000000153e-01 -2.270182999999999840e+00 -3.438959999999999795e-01 -7.116409999999999680e-01 1.655975999999999893e+00 -9.073010000000000241e-01 -9.187880000000000491e-01 2.355229000000000017e+00 2.195709999999999884e-01 -2.842046999999999990e+00 -2.860935000000000006e+00 1.887313999999999936e+00 -3.860370000000000190e-01 -3.798110000000000097e-01 9.467240000000000100e-01 2.682360000000000078e+00 1.112500000000000044e+00 5.208260000000000112e+00 -4.984549999999999814e-01 1.383119999999999905e+00 -1.947144999999999904e+00 1.305013999999999896e+00 -2.566885000000000083e+00 1.908579999999999943e+00 1.957256000000000107e+00 -2.169148999999999994e+00 -1.187189999999999968e+00 -6.073380000000000445e-01 1.480261999999999967e+00 -9.538320000000000132e-01 -2.794960000000000222e-01 -1.529490000000000016e-01 -6.467960000000000376e-01 6.356399999999999550e-02 4.355390000000000095e-01 1.706485999999999947e+00 -1.902007000000000003e+00 3.183958000000000066e+00 -3.974400000000000155e-01 -3.729934000000000083e+00 5.287988000000000355e+00 2.975693999999999839e+00 -4.824209999999999887e-01 9.276050000000000129e-01 -4.705590000000000050e-01 -3.320215000000000138e+00 -2.017443000000000097e+00 -4.521663000000000210e+00 -6.091326999999999714e+00 -3.009704000000000157e+00 -3.022682000000000091e+00 4.424958000000000169e+00 3.709366999999999859e+00 -1.233309999999999906e+00 4.498300000000000076e-01 1.624980000000000091e+00 2.737780000000000213e-01 -2.841339000000000059e+00 -1.211878000000000011e+00 2.854329999999999923e-01 6.507180000000000186e-01 -8.024019999999999486e-01 -2.303625999999999951e+00 -2.564306000000000196e+00 -3.825560000000000072e-01 -5.244700000000000056e-02 2.551229999999999887e-01 1.021676000000000029e+00 1.930948000000000109e+00 3.196559999999999846e+00 3.198929000000000133e+00 6.416589999999999794e-01 -5.765970000000000262e-01 6.493250000000000410e-01 -7.759449999999999958e-01 -4.852639999999999731e-01 -1.752386999999999917e+00 1.420314000000000076e+00 1.204341000000000106e+00 -3.648049999999999904e-01 -3.647400000000000087e-01 8.625599999999999934e-01 -4.689579999999999860e-01 -1.408649999999999902e-01 1.567380999999999913e+00 2.930470000000000019e-01 4.806279999999999997e-01 1.075957000000000052e+00 1.780349999999999988e-01 -9.793450000000000211e-01 7.051260000000000305e-01 -8.301290000000000058e-01 -3.265071999999999974e+00 -7.586129999999999818e-01 2.419102999999999781e+00 -3.202789999999999804e-01 7.890479999999999716e-01 -3.280660000000000243e-01 -1.231940999999999953e+00 2.412640000000000118e+00 1.058430999999999900e+00 1.109849000000000085e+00 -4.154900000000000260e-02 -7.627119999999999456e-01 2.634380000000000055e-01 -3.413680000000000048e-01 1.285769999999999968e-01 9.317300000000000582e-02 3.514470000000000094e-01 -2.331148000000000220e+00 7.058720000000000550e-01 -3.039921000000000095e+00 -3.319695999999999980e+00 1.372211999999999987e+00 7.955560000000000409e-01 4.685050000000000048e-01 -3.592137000000000135e+00 -6.472400000000000375e-02 2.076293999999999862e+00 1.756359999999999866e-01 7.228510000000000213e-01 -3.993072000000000177e+00 8.890860000000000429e-01 -1.957826999999999984e+00 -1.283709999999999907e+00 -2.996671999999999780e+00 1.523236999999999952e+00 2.369514999999999816e+00 -9.403129999999999544e-01 -1.014205999999999941e+00 -5.453069999999999862e-01 -1.331976000000000049e+00 -1.720830000000000137e-01 -1.099110000000000031e+00 1.227775000000000061e+00 1.917070000000000052e+00 5.957109999999999905e-01 -2.260956000000000188e+00 7.434790000000000010e-01 -9.349159999999999693e-01 -7.249189999999999801e-01 2.041709999999999914e-01 -3.474562000000000150e+00 -4.208379999999999899e-01 2.395942999999999934e+00 2.884149999999999769e-01 1.732920999999999934e+00 -1.523411000000000071e+00 2.641837000000000213e+00 -2.151129999999999987e-01 1.161143000000000036e+00 -2.132950999999999819e+00 -6.594640000000000502e-01 -4.142573999999999756e+00 -2.409981999999999847e+00 1.834300000000000097e-01 -1.387593000000000076e+00 -1.161488000000000076e+00 1.324178000000000077e+00 1.302000000000000032e-02 1.295261999999999913e+00 1.425230000000000108e-01 2.888170999999999822e+00 2.229830999999999896e+00 -6.034890000000000532e-01 -2.165640000000000065e-01 -9.624559999999999782e-01 2.502330999999999861e+00 -6.803500000000000103e-01 -4.485480000000000023e-01 2.075869999999999937e-01 -2.987908000000000008e+00 -2.496506000000000114e+00 1.896910000000000096e+00 6.499139999999999917e-01 -6.762920000000000043e-01 3.108369999999999744e-01 7.381149999999999656e-01 -6.904460000000000042e-01 -1.156984999999999930e+00 -8.330530000000000435e-01 -3.844119999999999759e-01 -9.002799999999999692e-02 -6.402800000000000158e-02 1.330345000000000111e+00 -2.497132000000000129e+00 -8.221610000000000307e-01 1.179818999999999951e+00 -3.311689999999999912e-01 1.136465999999999976e+00 1.420579999999999954e+00 1.639853000000000005e+00 -3.622770000000000157e-01 1.977244000000000002e+00 -1.260969999999999924e+00 5.450369999999999937e-01 -8.673269999999999591e-01 -2.732361000000000040e+00 5.599330000000000140e-01 -8.545650000000000190e-01 2.047992999999999952e+00 -3.869759999999999867e+00 -2.203212000000000170e+00 3.138253999999999877e+00 -1.768700000000000133e-02 6.933400000000000674e-02 9.951699999999999990e-01 -3.938240000000000074e-01 7.651520000000000543e-01 -9.839470000000000161e-01 -6.138219999999999787e-01 4.832870000000000221e-01 -1.495559999999999945e-01
-1.482310999999999934e+00 -1.306877999999999984e+00 -2.503352000000000022e+00 -1.041474999999999929e+00 -1.560650000000000093e+00 3.013339999999999907e-01 7.988210000000000033e-01 2.761575000000000113e+00 1.053710000000000063e-01 -2.032029999999999947e-01 3.659569999999999768e-01 -2.260637000000000008e+00 1.567044000000000104e+00 -4.162837999999999816e+00 -1.913626000000000049e+00 -1.506609999999999894e-01 -5.271379999999999955e-01 1.072419999999999929e+00 -1.681688999999999989e+00 2.845663000000000054e+00 -1.095053999999999972e+00 -1.068016000000000076e+00 -1.110201999999999911e+00 -1.762583000000000011e+00 -1.642190000000000039e-01 -1.739769999999999928e-01 -3.431220000000000159e+00 -1.280464000000000047e+00 3.415850000000000275e-01 2.726121000000000016e+00 1.203605000000000036e+00 -9.218910000000000160e-01 -2.069256000000000206e+00 1.746919999999999862e-01 1.983340000000000103e-01 5.062799999999999939e-02 3.997970000000000135e-01 9.491549999999999709e-01 -8.320629999999999971e-01 4.228959999999999941e-01 6.478829999999999867e-01 -4.525419999999999998e-01 -8.794309999999999627e-01 9.194170000000000398e-01 7.456319999999999615e-01 -1.687912000000000079e+00 2.584023999999999877e+00 -2.902170000000000027e-01 -5.137469999999999537e-01 5.343059999999999476e-01 1.399749999999999883e-01 1.233851999999999949e+00 1.223690000000000055e-01 1.233651999999999971e+00 1.494642999999999944e+00 7.716560000000000086e-01 -1.075671000000000044e+00 2.519599999999999965e-02 2.321738999999999997e+00 6.440050000000000496e-01 4.219609999999999750e-01 -2.183625000000000149e+00 1.530364000000000058e+00 -8.908859999999999557e-01 -6.368930000000000424e-01 1.318689000000000000e+00 8.248339999999999561e-01 -3.587350000000000261e-01 9.169089999999999741e-01 -1.481052999999999953e+00 -1.596509999999999874e-01 4.227299999999999947e-01 2.109420000000000073e+00 9.714190000000000325e-01 -1.016790000000000083e+00 -2.041890000000000094e-01 9.304700000000000470e-02 9.836300000000000598e-02 -2.615890000000000160e-01 1.424150000000000027e+00 1.914730000000000043e-01 -2.525024000000000157e+00 -1.451011999999999968e+00 1.897278999999999938e+00 -1.197610000000000063e-01 1.492840000000000000e-01 -2.232277999999999984e+00 -2.885730000000000239e-01 2.946270000000000167e+00 2.281382999999999939e+00 -1.156118999999999897e+00 4.191097000000000072e+00 5.349599999999999689e+00 8.924530000000000518e-01 1.206720000000000015e-01 3.458987000000000034e+00 -1.984782999999999964e+00 8.202180000000000026e-01 6.559390000000000498e-01 2.497187999999999963e+00 2.559250000000000136e-01 8.414040000000000408e-01 1.458623999999999921e+00 1.174052000000000096e+00 -5.279409999999999936e-01 9.269650000000000389e-01 -3.396330000000000182e-01 5.448399999999999771e-02 -2.883611999999999842e+00 1.785052000000000083e+00 -1.311984999999999957e+00 2.110450000000000104e-01 -3.116464999999999819e+00 -2.931223000000000134e+00 1.595148999999999928e+00 -8.005010000000000181e-01 -7.114899999999999558e-01 -4.012399999999999994e-02 -1.184323999999999932e+00 -2.446521000000000168e+00 1.380193000000000003e+00 1.540896000000000043e+00 -7.113760000000000083e-01 -1.425920000000000076e+00 -2.140474000000000210e+00 -1.368713000000000068e+00 -2.175374999999999837e+00 -2.061583999999999861e+00 -1.401060999999999890e+00 -2.230034999999999989e+00 -4.513570000000000082e-01 3.814799999999999858e-01 1.063439999999999941e-01 1.410423999999999900e+00 -2.180673000000000084e+00 3.206649999999999778e-01 1.069979000000000013e+00 1.861810000000000132e-01 -2.181680000000000008e-01 -3.011150000000000215e-01 7.183819999999999650e-01 -2.876810000000000200e-01 7.742229999999999945e-01 -1.266536000000000106e+00 7.612010000000000165e-01 1.795760000000000134e-01 3.154760000000000009e+00 2.813428000000000040e+00 -2.700798999999999950e+00 -5.260799999999999921e-01 2.241651000000000060e+00 -3.428068000000000115e+00 -7.004879999999999995e-01 1.845109000000000110e+00 -1.230229999999999935e-01 2.171619999999999939e-01 -6.977300000000000169e-02 -1.070257000000000014e+00 1.923420000000000130e-01 -6.013309999999999489e-01 1.054648999999999948e+00 -6.803390000000000271e-01 -4.945910000000000029e-01 -1.640295999999999976e+00 -7.581369999999999498e-01 9.069800000000000084e-01 -7.572179999999999467e-01 -5.375490000000000546e-01 -5.193299999999999583e-01 1.023141999999999996e+00 1.072209999999999969e-01 -6.486210000000000031e-01 1.629426999999999959e+00 -6.958820000000000006e-01 -1.540229999999999988e+00 -7.120009999999999950e-01 2.745369999999999755e-01 -1.371756999999999893e+00 -2.744260000000000033e-01 1.715302000000000104e+00 -1.126398999999999928e+00 -7.426469999999999461e-01 2.251839999999999953e-01 1.156984000000000012e+00 4.763749999999999929e-01 -7.145400000000000362e-02 8.216059999999999475e-01 -1.252600000000000068e-02 1.992430000000000034e-01 1.176031999999999966e+00 1.346311999999999953e+00 2.092042000000000179e+00 1.671866000000000074e+00 5.894639999999999880e-01 -5.442270000000000163e-01 -7.030309999999999615e-01 4.503499999999999864e-02 -2.042046000000000028e+00 9.966930000000000511e-01 -3.904139999999999833e-01 9.195759999999999490e-01 -7.692639999999999478e-01 1.741860000000000075e-01 -2.430879999999999985e-01 2.683249999999999802e-01 7.650700000000000278e-01 -1.293180999999999914e+00 1.104020000000000001e+00 -1.379901999999999962e+00 -8.608770000000000033e-01 1.271619999999999973e-01 2.552710000000000257e-01 -3.992450000000000165e-01 9.157579999999999609e-01 1.376233999999999957e+00 9.567539999999999933e-01 -1.535009999999999986e-01 -4.002629999999999799e-01 -1.292804000000000064e+00 -2.189299999999999927e-02 -2.237649999999999917e-01 4.895889999999999964e-01 -1.661148000000000069e+00 2.893609000000000098e+00 2.749566999999999872e+00 8.664100000000000135e-01 -1.170317999999999969e+00 -1.472420000000000062e+00 1.555698000000000025e+00 4.597700000000000120e-01 1.400859999999999883e-01 -4.333040000000000225e-01 1.227778000000000036e+00 1.097418999999999922e+00 1.153656000000000015e+00 -3.482299999999999979e-02 5.570399999999999657e-02 9.057979999999999920e-01 -7.551320000000000254e-01 -1.141474000000000100e+00 1.064664999999999973e+00 -7.862230000000000052e-01 -3.798980000000000135e-01 2.602940000000000254e-01 -4.830030000000000157e-01 -2.029859999999999998e-01 -1.176033000000000106e+00 1.213009000000000004e+00 -2.444419999999999926e-01 -9.665949999999999820e-01 -1.881458999999999993e+00 2.552505000000000024e+00 1.407699999999999951e+00 2.336821000000000037e+00 4.581299999999999817e-01 -2.012821000000000193e+00 -1.460944000000000020e+00 1.889378999999999920e+00 -1.097828999999999944e+00 -1.767104000000000008e+00 1.513214999999999977e+00 -2.185992999999999853e+00 -2.128925000000000178e+00 1.205182999999999893e+00 -7.063110000000000221e-01 2.982020000000000226e-01 -4.042810000000000015e-01 -9.591079999999999606e-01 4.781590000000000007e-01 1.365812999999999944e+00 3.785379999999999856e-01 -1.437448999999999977e+00 5.187629999999999741e-01 1.188987000000000016e+00 -1.956850999999999896e+00 -2.127222000000000168e+00 1.141099000000000085e+00 1.295382999999999951e+00 2.415442999999999785e+00 6.741099999999999870e-01 2.026370000000000116e-01 -1.028488999999999987e+00 7.572600000000000164e-02 -7.437000000000000277e-01 -3.882900000000000240e-01
1.888905999999999974e+00 -1.514999999999999902e+00 -1.560812000000000088e+00 1.545682999999999918e+00 -1.391019999999999923e+00 1.203977000000000075e+00 -1.524580999999999964e+00 2.029707000000000150e+00 -2.012850999999999946e+00 -1.933800000000000102e-02 1.482560000000000100e+00 2.469088000000000171e+00 -9.398320000000000007e-01 -8.720820000000000238e-01 -9.183900000000000396e-02 -9.280260000000000176e-01 1.870120000000000116e-01 -7.807380000000000431e-01 -2.138142000000000209e+00 -1.484444000000000097e+00 1.995883000000000074e+00 -5.882669999999999844e-01 3.686389999999999945e-01 -2.033770000000000022e-01 -1.417067000000000077e+00 1.402849999999999930e+00 1.764953999999999912e+00 1.201996999999999982e+00 1.674200000000000133e-01 6.128900000000000459e-01 -1.587015000000000065e+00 2.716133000000000131e+00 2.802609999999999824e-01 -1.618074000000000012e+00 4.958069000000000059e+00 -1.279497000000000106e+00 2.888041999999999998e+00 4.173999999999999932e-02 -8.953489999999999505e-01 -5.672559999999999825e-01 -9.562420000000000364e-01 9.872899999999999732e-02 2.579524000000000150e+00 -2.679380999999999791e+00 4.517410000000000037e-01 2.485950000000000104e-01 4.918600000000000194e-01 3.441697000000000006e+00 3.949199999999999933e-01 -1.085419999999999996e-01 -4.618510000000000115e-01 8.266930000000000112e-01 -3.666844000000000214e+00 -2.104877000000000109e+00 1.634780000000000122e-01 -4.991510000000000113e-01 -2.841119999999999757e-01 -2.204649999999999943e-01 2.707324999999999982e+00 -3.149828999999999990e+00 -1.179499999999999993e-02 -1.902273000000000103e+00 4.663059999999999983e-01 2.165380000000000082e-01 8.638200000000000045e-02 -2.945823999999999998e+00 2.903430000000000177e-01 -8.165630000000000388e-01 -4.458018000000000036e+00 2.172356000000000176e+00 7.595200000000000562e-02 -6.454300000000000315e-02 -1.514424999999999910e+00 2.504405000000000214e+00 2.312755999999999812e+00 1.197543000000000024e+00 2.142560000000000020e+00 -3.132522999999999946e+00 2.884119000000000099e+00 -3.240063000000000137e+00 1.275392999999999999e+00 -2.945087000000000010e+00 -2.256797000000000164e+00 2.281442000000000192e+00 -2.624722000000000222e+00 1.136875999999999998e+00 -2.121322999999999848e+00 -3.787280000000000091e-01 2.647709999999999786e-01 -4.008749999999999813e-01 -1.132254000000000094e+00 3.259429999999999827e-01 -3.754419999999999980e-01 7.487129999999999619e-01 3.415369999999999795e+00 -1.781960999999999906e+00 -5.797109999999999763e-01 1.177529000000000048e+00 1.653299999999999909e-02 3.341108999999999885e+00 -1.334198999999999913e+00 3.865640000000000187e-01 -1.140039999999999942e-01 -1.291314000000000073e+00 -4.006504999999999761e+00 -2.667260999999999882e+00 1.784129999999999994e+00 1.131623000000000046e+00 1.860027000000000097e+00 9.891020000000000367e-01 1.585992999999999986e+00 -5.360200000000000520e-01 7.891829999999999679e-01 -1.648700000000000054e+00 2.675129000000000090e+00 8.751050000000000217e-01 -1.843180000000000096e-01 -1.532780000000000031e+00 -1.232769999999999921e+00 -7.899629999999999708e-01 1.513983999999999996e+00 1.477238999999999969e+00 -3.013489999999999780e-01 -1.563976000000000033e+00 -6.409209999999999630e-01 -4.493059999999999832e-01 2.583374000000000059e+00 4.766170000000000129e-01 6.202269999999999728e-01 6.068459999999999965e-01 -4.823209999999999997e-01 -3.760700000000000154e-02 1.237843000000000027e+00 -7.079000000000000570e-02 1.854889999999999872e-01 5.942420000000000480e-01 -5.003859999999999975e-01 6.844590000000000396e-01 2.158780000000000143e+00 2.391154999999999919e+00 2.943509999999999738e-01 9.964699999999999669e-01 -4.225920000000000232e-01 -1.229497999999999980e+00 1.053318999999999894e+00 -5.393350000000000088e-01 1.071199999999999930e-02 -1.966337000000000002e+00 2.600709999999999966e-01 -1.891740000000000088e-01 1.799573000000000089e+00 -1.445484999999999909e+00 -1.288628000000000107e+00 2.819720000000000004e-01 1.110692999999999930e+00 -5.161799999999999722e-01 7.987220000000000431e-01 4.407110000000000194e-01 -6.018809999999999993e-01 8.426930000000000254e-01 -2.602149999999999741e-01 -9.283400000000000540e-01 7.959800000000000209e-02 -1.344314000000000009e+00 -7.662809999999999899e-01 -1.257358999999999893e+00 -1.832416000000000045e+00 2.879944000000000059e+00 -4.602330000000000032e-01 -1.140935999999999950e+00 -5.270540000000000225e-01 -1.035201000000000038e+00 -8.486240000000000450e-01 8.928120000000000500e-01 3.039645000000000152e+00 1.162529999999999952e-01 8.421769999999999534e-01 -2.147288000000000086e+00 -3.660753999999999841e+00 1.805584999999999996e+00 -3.159527000000000196e+00 -1.983560000000000045e-01 -1.122506000000000004e+00 1.488137999999999961e+00 1.074232000000000076e+00 2.836415999999999826e+00 1.355663999999999980e+00 -1.261047999999999947e+00 1.444453999999999905e+00 -1.078024000000000093e+00 -7.881709999999999550e-01 -1.470773000000000108e+00 3.558120000000000172e-01 -2.716117000000000115e+00 1.936366000000000032e+00 2.190999999999999805e-03 -7.730120000000000324e-01 1.636316000000000104e+00 -4.030099999999999794e-01 -1.876279999999999892e-01 -5.016490000000000116e-01 -1.504999999999999914e-02 -1.626259999999999928e-01 1.926800000000000040e-02 1.448629999999999918e-01 -4.516009999999999747e-01 2.893639999999999990e+00 1.477276999999999951e+00 -7.860499999999999432e-02 -6.164570000000000327e-01 6.589059999999999917e-01 1.279084000000000110e+00 -2.897012999999999838e+00 -1.604760000000000075e-01 -3.219504999999999839e+00 -1.279274999999999940e+00 8.179450000000000331e-01 -5.693799999999999972e-01 2.977330999999999950e+00 -9.688639999999999475e-01 -3.683999999999999775e-02 1.434596999999999900e+00 -3.352240000000000220e-01 -1.195750000000000091e+00 1.258205000000000018e+00 -9.019439999999999680e-01 -5.788630000000000164e-01 -2.656270000000000020e-01 5.886600000000000166e-02 -1.270796999999999954e+00 -3.391370000000000218e-01 -4.303400000000000003e-01 1.718034000000000061e+00 -5.966314999999999813e+00 -3.022508999999999890e+00 4.414950000000000263e-01 9.900930000000000009e-01 -5.740380000000000482e-01 5.179030000000000022e-01 1.318659999999999943e+00 -1.133936000000000055e+00 -2.175645999999999969e+00 1.308062999999999976e+00 6.750159999999999494e-01 2.961996000000000073e+00 1.689726000000000061e+00 1.958801000000000014e+00 7.398979999999999446e-01 -1.320178999999999991e+00 -1.152795999999999932e+00 -3.473849999999999993e-01 -1.231422000000000017e+00 3.113330000000000264e-01 1.926730000000000109e-01 1.184839999999999893e+00 -2.515048999999999868e+00 -8.714089999999999892e-01 7.451636999999999844e+00 -1.846059999999999923e-01 1.610532999999999992e+00 1.121374000000000093e+00 -2.861909999999999732e-01 -2.865449999999999942e-01 -1.721000000000000030e-01 -2.176970999999999989e+00 3.164290000000000158e-01 -1.572217999999999893e+00 1.203459000000000056e+00 4.357765999999999806e+00 -2.027769000000000155e+00 -1.908269999999999911e+00 1.254300000000000033e-02 1.356352999999999920e+00 9.645409999999999817e-01 1.566009999999999902e-01 5.212029999999999719e-01 1.701254000000000044e+00 6.620540000000000314e-01 -1.713279999999999914e+00 -2.570342999999999822e+00 -5.429180000000000117e-01 -3.650180000000000091e-01 -8.924330000000000318e-01 1.713373999999999953e+00 1.061037000000000008e+00
3.718199999999999977e-02 2.360605000000000064e+00 1.509992000000000001e+00 -6.316009999999999680e-01 4.907309999999999728e-01 3.229915999999999787e+00 -1.203213000000000088e+00 1.637599999999999889e-01 1.039187000000000083e+00 -9.023849999999999927e-01 -1.614961000000000091e+00 -1.197613000000000039e+00 -2.432023000000000046e+00 -2.607100000000000042e-02 3.630970000000000031e+00 -5.948729999999999851e-01 2.233979999999999855e+00 -2.623153999999999986e+00 -1.468477999999999950e+00 3.242353000000000041e+00 -5.634103999999999779e+00 1.527199999999999946e-01 -2.105968999999999980e+00 4.055989999999999873e-01 -4.505259999999999820e-01 -2.306954999999999867e+00 2.040649999999999853e+00 -3.737920000000000131e-01 3.985020000000000229e-01 -3.426178999999999863e+00 2.418658999999999892e+00 2.649528999999999801e+00 1.917143999999999959e+00 1.855971999999999955e+00 1.140721000000000096e+00 -5.810370000000000257e-01 -4.793366999999999933e+00 1.365337999999999941e+00 -4.428460000000000174e-01 1.710140999999999911e+00 -1.177046999999999954e+00 5.643449999999999855e-01 1.258339000000000096e+00 2.044551999999999925e+00 2.164468999999999976e+00 2.044728999999999797e+00 -1.629944000000000059e+00 -2.663837000000000010e+00 -1.527120999999999951e+00 1.144417000000000018e+00 2.547077999999999953e+00 -1.705250000000000099e-01 -5.712150000000000283e-01 2.716019999999999879e+00 -6.491240000000000343e-01 3.827200000000000046e-02 -5.897059999999999524e-01 -7.303380000000000427e-01 8.986370000000000191e-01 -1.226088999999999984e+00 -5.978489999999999638e-01 -6.309190000000000076e-01 5.874049999999999550e-01 3.276040000000000063e-01 1.599215999999999971e+00 1.626214000000000048e+00 -1.058999000000000024e+00 1.214483999999999897e+00 7.270020000000000371e-01 1.315034000000000036e+00 7.018090000000000162e-01 -1.041630000000000056e-01 2.303580000000000072e-01 -6.063349999999999573e-01 -1.726345999999999936e+00 -1.384289999999999965e-01 -3.003300999999999998e+00 7.427310000000000301e-01 -8.342469999999999608e-01 -5.606160000000000032e-01 -2.869302999999999937e+00 -1.825547000000000031e+00 -3.142420000000000213e-01 -2.365041999999999867e+00 -5.490279999999999605e-01 5.011929999999999996e-01 1.699619999999999909e+00 -6.919159999999999755e-01 -1.582071999999999923e+00 8.614690000000000403e-01 1.720701999999999954e+00 -2.169598000000000138e+00 -1.934120000000000006e-01 4.191880000000000051e-01 -4.643800000000000011e-02 5.068989999999999885e-01 3.492900000000000171e-02 -7.579310000000000214e-01 -4.025340000000000029e-01 1.232865000000000100e+00 -1.700256999999999907e+00 -4.477909999999999946e-01 9.199559999999999960e-01 1.379685999999999968e+00 -1.145211999999999897e+00 3.585650000000000226e-01 2.285969999999999946e-01 1.821768999999999972e+00 -1.133378999999999914e+00 -1.727961000000000080e+00 -2.702650000000000219e+00 -8.593089999999999895e-01 1.689751999999999921e+00 2.440144000000000091e+00 3.582485000000000142e+00 -9.283050000000000468e-01 2.895230999999999888e+00 -2.773356999999999850e+00 -2.248193000000000108e+00 2.145182999999999840e+00 2.098612000000000144e+00 -1.784499999999999975e-02 1.671535999999999911e+00 3.575075000000000003e+00 1.190207000000000015e+00 2.932404000000000011e+00 5.575120000000000076e-01 2.561740000000000128e-01 4.604460000000000219e-01 1.348650000000000126e-01 1.195632999999999946e+00 8.253970000000000473e-01 -3.280107999999999802e+00 -2.192864000000000146e+00 1.505049999999999999e-01 -1.178217999999999988e+00 -5.998160000000000158e-01 7.583550000000000013e-01 -1.813919999999999977e+00 -1.831217000000000095e+00 5.345659999999999856e-01 3.028436000000000128e+00 -1.654668000000000028e+00 -1.177353000000000094e+00 1.621477000000000057e+00 -3.488122000000000167e+00 -3.638659999999999783e+00 -1.424851000000000090e+00 1.003004000000000007e+00 3.296622000000000163e+00 1.041066000000000047e+00 -6.427829999999999933e-01 -5.243360000000000243e-01 1.416296999999999917e+00 -1.308864999999999945e+00 -1.824640000000000040e+00 -6.758729999999999460e-01 2.404637000000000135e+00 -1.898176000000000085e+00 -2.432491000000000181e+00 2.022917000000000076e+00 -1.706409999999999982e+00 1.791973999999999956e+00 -2.028777999999999970e+00 -1.521603999999999957e+00 6.758070000000000466e-01 1.304931999999999981e+00 -1.030302999999999969e+00 1.290869999999999962e+00 2.577604000000000006e+00 -1.947108999999999979e+00 -2.916019999999999723e-01 -1.587418999999999913e+00 4.400699999999999751e-02 -5.172710000000000363e-01 -5.538030000000000452e-01 1.404017000000000071e+00 1.680026000000000019e+00 5.921910000000000229e-01 5.301059999999999661e-01 4.555629999999999957e-01 -7.826450000000000351e-01 -4.128223000000000198e+00 -1.815525000000000055e+00 -9.997799999999999743e-02 -4.054242999999999597e+00 -9.607339999999999769e-01 2.280224000000000029e+00 3.480599999999999805e-01 -1.399499999999999966e+00 -4.042669999999999875e-01 -4.109067999999999721e+00 1.757751000000000063e+00 -3.764241999999999866e+00 3.384787999999999908e+00 1.170751000000000097e+00 -3.787803999999999949e+00 4.200533000000000072e+00 -1.135042000000000106e+00 1.223039999999999905e+00 3.409324999999999939e+00 -1.408795999999999937e+00 2.261446999999999985e+00 -3.824870000000000214e-01 2.020214999999999872e+00 4.753780000000000228e-01 -1.048777999999999988e+00 4.438380000000000103e-01 -7.421499999999999764e-01 -1.328055999999999903e+00 -3.198922000000000043e+00 4.236269999999999758e-01 1.305533000000000055e+00 4.976760000000000073e-01 -3.756019999999999914e-01 -1.923902999999999919e+00 3.732759999999999967e-01 -2.208289000000000168e+00 -4.963000000000000189e-01 7.019269999999999676e-01 3.067130000000000134e-01 -7.208109999999999795e-01 -3.893670000000000186e-01 9.171960000000000113e-01 -1.119061000000000083e+00 2.007230000000000125e-01 -2.863935999999999815e+00 1.334913000000000016e+00 -2.319148999999999905e+00 -1.932409999999999961e-01 -8.660700000000000343e-02 1.505934000000000106e+00 -5.534329999999999528e-01 -8.488850000000000007e-01 -6.627600000000000158e-01 -9.291859999999999564e-01 -4.083040000000000003e-01 9.882039999999999713e-01 2.278999999999999915e-01 -9.028760000000000119e-01 -8.072420000000000151e-01 2.855233999999999828e+00 -1.822372000000000103e+00 4.682399999999999896e-01 7.565619999999999568e-01 2.256311000000000178e+00 2.377350000000000019e-01 -1.704999999999999918e-02 -2.339529999999999943e-01 1.839899999999999869e-01 -1.786898000000000097e+00 -1.636219999999999897e-01 -8.639419999999999877e-01 1.981435999999999975e+00 -1.191637999999999975e+00 -1.987913000000000041e+00 -1.736032999999999937e+00 1.509957999999999911e+00 3.207999999999999741e-02 2.188931000000000182e+00 1.697564999999999991e+00 1.704841000000000051e+00 -1.215972000000000053e+00 -1.053089999999999998e-01 2.762850000000000028e-01 -9.452129999999999699e-01 5.625289999999999457e-01 -2.974334999999999951e+00 -3.081180000000000030e-01 -5.784489999999999910e-01 2.031816000000000066e+00 2.952087000000000128e+00 -1.123034000000000088e+00 1.464841999999999977e+00 2.927118000000000109e+00 7.526059999999999972e-01 5.891099999999999809e-02 1.202437999999999896e+00 -1.136308000000000096e+00 7.271520000000000206e-01 2.254049999999999887e+00 1.643664999999999932e+00 2.093796999999999908e+00 1.061750999999999889e+00 6.891150000000000331e-01