-9.532762898400000040e+02
-9.370302176100000224e+02
-9.329492557900000520e+02
-9.396111545700000534e+02
-9.471586522600000535e+02
-9.499805010999999695e+02
-9.275435359800000015e+02
-9.582340856700000131e+02
-9.300283834800000022e+02
-9.524207304100000329e+02
-9.563782820899999706e+02
-9.268259233200000153e+02
-9.494547056400000429e+02
-9.540751861999999619e+02
-9.429892408700000033e+02
-9.577023819700000331e+02
-9.570365352300000268e+02
-9.361028250099999468e+02
-9.473473558299999695e+02
-9.264098121299999775e+02
-9.282447979400000122e+02
-9.422546876500000508e+02
-9.395155836899999713e+02
-9.281918818000000329e+02
-9.374482870000000503e+02
-9.482661615700000084e+02
-9.341737901000000193e+02
-9.377725604099999828e+02
-9.295240375600000107e+02
-9.354292758999999933e+02
-9.289161433299999544e+02
-9.359326439100000243e+02
-9.377475849899999503e+02
-9.439468086299999641e+02
-9.427421851699999706e+02
-9.324013446999999815e+02
-9.352029078900000059e+02
-9.406208167999999432e+02
-9.347883508200000051e+02
-9.540519255499999645e+02
-9.454521536600000218e+02
-9.386398489700000027e+02
-9.399286668400000053e+02
-9.324516224000000193e+02
-9.528691344799999570e+02
-9.182614242800000284e+02
-9.413996245800000224e+02
-9.496499386799999911e+02
-9.529222235500000124e+02
-9.442782164999999850e+02
-9.288871986799999831e+02
-9.575104664799999910e+02
-9.586103447399999595e+02
-9.443918907199999921e+02
-9.321274763300000359e+02
-9.380256477399999540e+02
-9.480181001299999934e+02
-9.326301805699999932e+02
-9.527934086300000445e+02
-9.321161160499999596e+02
-9.445658293300000423e+02
-9.230347960599999624e+02
-9.329064486199999919e+02
-9.361970131499999752e+02
-9.490124745499999790e+02
-9.268675394099999494e+02
-9.490656287399999655e+02
-9.348893389500000239e+02
-9.536450259599999981e+02
-9.524527425999999650e+02
-9.310887702300000228e+02
-9.431527785299999778e+02
-9.368581775200000266e+02
-9.579437433599999849e+02
-9.384760077700000238e+02
-9.383593402100000276e+02
-9.327858825199999728e+02
-9.360323673899999903e+02
-9.482255354899999702e+02
-9.360303688300000431e+02
-9.519342382500000213e+02
-9.374823321100000157e+02
-9.387497927699999991e+02
-9.444551110300000119e+02
-9.381699205600000369e+02
-9.517595027900000559e+02
-9.307776793699999871e+02
-9.346483326600000510e+02
-9.324507398099999591e+02
-9.488356898299999784e+02
-9.267958095899999762e+02
-9.283039235200000121e+02
-9.405885326500000474e+02
-9.487634972700000162e+02
-9.358366238800000474e+02
-9.491635601699999825e+02
-9.520399506999999630e+02
-9.382166882499999474e+02
-9.326627398900000117e+02
-9.375924490400000195e+02
