1.028822428600000016e+01 0.000000000000000000e+00 0.000000000000000000e+00 -2.383253899999999981e-02 1.069707937899999983e+01 0.000000000000000000e+00 2.136549299999999929e-02 -2.228908099999999878e-02 1.025871762499999917e+01
1.022416991400000086e+01 0.000000000000000000e+00 0.000000000000000000e+00 -2.368415700000000082e-02 1.063047947999999998e+01 0.000000000000000000e+00 2.123247199999999876e-02 -2.215030899999999997e-02 1.019484696199999973e+01
1.051231935400000062e+01 0.000000000000000000e+00 0.000000000000000000e+00 -2.435165200000000141e-02 1.093008000899999921e+01 0.000000000000000000e+00 2.183086999999999875e-02 -2.277457499999999829e-02 1.048216998800000077e+01
1.035383243599999936e+01 0.000000000000000000e+00 0.000000000000000000e+00 -2.398451899999999928e-02 1.076529480299999975e+01 0.000000000000000000e+00 2.150174100000000130e-02 -2.243121899999999877e-02 1.032413761099999938e+01
1.046158266099999956e+01 0.000000000000000000e+00 0.000000000000000000e+00 2.426930999999999880e-02 1.087726746300000080e+01 0.000000000000000000e+00 2.174873800000000010e-02 2.256092800000000093e-02 1.043159534099999952e+01
1.014648644000000033e+01 0.000000000000000000e+00 0.000000000000000000e+00 2.353833400000000103e-02 1.054965108000000029e+01 0.000000000000000000e+00 2.109368000000000007e-02 2.188140699999999855e-02 1.011740231899999998e+01
1.014230958799999982e+01 0.000000000000000000e+00 0.000000000000000000e+00 2.352864400000000134e-02 1.054530826300000079e+01 0.000000000000000000e+00 2.108499700000000115e-02 2.187240000000000018e-02 1.011323743900000061e+01
1.036109233200000013e+01 0.000000000000000000e+00 0.000000000000000000e+00 -2.400133700000000106e-02 1.077284320799999939e+01 0.000000000000000000e+00 2.151681800000000006e-02 -2.244694699999999835e-02 1.033137668500000039e+01
1.052728817000000028e+01 0.000000000000000000e+00 0.000000000000000000e+00 -2.438632699999999931e-02 1.094564368700000045e+01 0.000000000000000000e+00 2.186195599999999836e-02 -2.280700500000000172e-02 1.049709587399999933e+01
1.042973822899999981e+01 0.000000000000000000e+00 0.000000000000000000e+00 2.419543600000000072e-02 1.084415771199999945e+01 0.000000000000000000e+00 2.168253599999999878e-02 2.249225399999999972e-02 1.039984218799999915e+01
1.034097292899999943e+01 0.000000000000000000e+00 0.000000000000000000e+00 2.398951399999999998e-02 1.075186537399999942e+01 0.000000000000000000e+00 2.149800099999999922e-02 2.230082699999999876e-02 1.031133132699999955e+01
1.042329232600000033e+01 0.000000000000000000e+00 0.000000000000000000e+00 -2.414542199999999972e-02 1.083751503699999930e+01 0.000000000000000000e+00 2.164598800000000142e-02 -2.258170099999999916e-02 1.039339829000000037e+01
1.039454052099999970e+01 0.000000000000000000e+00 0.000000000000000000e+00 -2.407881900000000130e-02 1.080762063200000078e+01 0.000000000000000000e+00 2.158627899999999988e-02 -2.251941099999999960e-02 1.036472894499999953e+01
1.043502749499999993e+01 0.000000000000000000e+00 0.000000000000000000e+00 2.420770599999999897e-02 1.084965714299999995e+01 0.000000000000000000e+00 2.169353200000000148e-02 2.250366100000000119e-02 1.040511629200000066e+01
1.043534458999999970e+01 0.000000000000000000e+00 0.000000000000000000e+00 2.420844200000000015e-02 1.084998683799999952e+01 0.000000000000000000e+00 2.169419100000000156e-02 2.250434499999999852e-02 1.040543247899999990e+01
1.021698727799999951e+01 0.000000000000000000e+00 0.000000000000000000e+00 2.370188599999999840e-02 1.062295322700000000e+01 0.000000000000000000e+00 2.124024500000000135e-02 2.203344600000000167e-02 1.018770107099999933e+01
1.040907791499999924e+01 0.000000000000000000e+00 0.000000000000000000e+00 -2.411249400000000168e-02 1.082273574300000085e+01 0.000000000000000000e+00 2.161646899999999927e-02 -2.255090599999999904e-02 1.037922464600000083e+01
1.034726911099999924e+01 0.000000000000000000e+00 0.000000000000000000e+00 -2.396931500000000145e-02 1.075847065199999975e+01 0.000000000000000000e+00 2.148811100000000071e-02 -2.241699999999999943e-02 1.031759311000000068e+01
1.035778862999999994e+01 0.000000000000000000e+00 0.000000000000000000e+00 -2.399368400000000123e-02 1.076940821700000050e+01 0.000000000000000000e+00 2.150995699999999969e-02 -2.243979000000000112e-02 1.032808245900000088e+01
1.031406216899999961e+01 0.000000000000000000e+00 0.000000000000000000e+00 -2.389239199999999841e-02 1.072394406199999928e+01 0.000000000000000000e+00 2.141915000000000138e-02 -2.234505800000000098e-02 1.028448140499999930e+01
1.037478148699999991e+01 0.000000000000000000e+00 0.000000000000000000e+00 -2.403304699999999836e-02 1.078707637199999958e+01 0.000000000000000000e+00 2.154524600000000054e-02 -2.247660400000000072e-02 1.034502658000000075e+01
1.051377786399999970e+01 0.000000000000000000e+00 0.000000000000000000e+00 -2.435503099999999921e-02 1.093159647899999953e+01 0.000000000000000000e+00 2.183389900000000036e-02 -2.277773500000000034e-02 1.048362431500000014e+01
1.010870751000000034e+01 0.000000000000000000e+00 0.000000000000000000e+00 -2.341669000000000042e-02 1.051042858799999991e+01 0.000000000000000000e+00 2.099269200000000030e-02 -2.190016399999999974e-02 1.007971570399999983e+01
1.008289275299999943e+01 0.000000000000000000e+00 0.000000000000000000e+00 2.339080600000000010e-02 1.048353053499999987e+01 0.000000000000000000e+00 2.096147400000000077e-02 2.174426399999999926e-02 1.005399091800000022e+01
1.009061603199999979e+01 0.000000000000000000e+00 0.000000000000000000e+00 -2.337478200000000020e-02 1.049161815299999923e+01 0.000000000000000000e+00 2.095512100000000016e-02 -2.186097000000000040e-02 1.006167611300000075e+01
1.040507152700000049e+01 0.000000000000000000e+00 0.000000000000000000e+00 -2.410321400000000128e-02 1.081857014200000044e+01 0.000000000000000000e+00 2.160814900000000011e-02 -2.254222700000000149e-02 1.037522974900000072e+01
1.009067582099999960e+01 0.000000000000000000e+00 0.000000000000000000e+00 2.340886199999999903e-02 1.049162285899999958e+01 0.000000000000000000e+00 2.097765399999999836e-02 2.176104900000000106e-02 1.006175167600000009e+01
1.034029010499999934e+01 0.000000000000000000e+00 0.000000000000000000e+00 -2.395314800000000049e-02 1.075121429900000081e+01 0.000000000000000000e+00 2.147361799999999987e-02 -2.240187999999999902e-02 1.031063411999999957e+01
1.017453973299999959e+01 0.000000000000000000e+00 0.000000000000000000e+00 -2.356919000000000028e-02 1.057887698999999948e+01 0.000000000000000000e+00 2.112940500000000041e-02 -2.204278700000000119e-02 1.014535912000000017e+01
1.039233336100000038e+01 0.000000000000000000e+00 0.000000000000000000e+00 2.410866199999999945e-02 1.080526658299999987e+01 0.000000000000000000e+00 2.160477499999999967e-02 2.241158899999999912e-02 1.036254453799999986e+01
1.034535020100000047e+01 0.000000000000000000e+00 0.000000000000000000e+00 -2.396486999999999923e-02 1.075647548399999920e+01 0.000000000000000000e+00 2.148412599999999922e-02 -2.241284199999999879e-02 1.031567970400000078e+01
1.013081492699999941e+01 0.000000000000000000e+00 0.000000000000000000e+00 2.350197899999999923e-02 1.053335686900000034e+01 0.000000000000000000e+00 2.106109999999999927e-02 2.184761099999999942e-02 1.010177572699999970e+01
1.039694899799999916e+01 0.000000000000000000e+00 0.000000000000000000e+00 2.411937000000000109e-02 1.081006561999999960e+01 0.000000000000000000e+00 2.161437000000000080e-02 2.242154199999999917e-02 1.036714694500000000e+01
1.044258650899999985e+01 0.000000000000000000e+00 0.000000000000000000e+00 2.422524200000000100e-02 1.085751650999999995e+01 0.000000000000000000e+00 2.170924700000000096e-02 2.251996200000000101e-02 1.041265364000000027e+01
1.012345331899999934e+01 0.000000000000000000e+00 0.000000000000000000e+00 2.348490099999999900e-02 1.052570275100000075e+01 0.000000000000000000e+00 2.104579599999999856e-02 2.183173500000000142e-02 1.009443521999999938e+01
1.019887975099999977e+01 0.000000000000000000e+00 0.000000000000000000e+00 -2.362557300000000041e-02 1.060418428300000038e+01 0.000000000000000000e+00 2.117995199999999842e-02 -2.209551900000000096e-02 1.016962933099999944e+01
1.044528292600000086e+01 0.000000000000000000e+00 0.000000000000000000e+00 2.423149700000000115e-02 1.086032006699999997e+01 0.000000000000000000e+00 2.171485199999999977e-02 2.252577700000000030e-02 1.041534232699999940e+01
1.036938198400000033e+01 0.000000000000000000e+00 0.000000000000000000e+00 -2.402053900000000047e-02 1.078146229200000050e+01 0.000000000000000000e+00 2.153403300000000103e-02 -2.246490599999999976e-02 1.033964256199999987e+01
1.037482017299999981e+01 0.000000000000000000e+00 0.000000000000000000e+00 -2.403313699999999956e-02 1.078711659500000053e+01 0.000000000000000000e+00 2.154532600000000006e-02 -2.247668800000000161e-02 1.034506515500000035e+01
1.040508912399999986e+01 0.000000000000000000e+00 0.000000000000000000e+00 -2.410325500000000051e-02 1.081858843800000081e+01 0.000000000000000000e+00 2.160818600000000145e-02 -2.254226499999999883e-02 1.037524729399999934e+01
1.052054538500000014e+01 0.000000000000000000e+00 0.000000000000000000e+00 2.440609499999999918e-02 1.093857303599999931e+01 0.000000000000000000e+00 2.187131700000000123e-02 2.268808400000000072e-02 1.049038905199999938e+01
1.038855804199999966e+01 0.000000000000000000e+00 0.000000000000000000e+00 -2.406495999999999982e-02 1.080140040899999931e+01 0.000000000000000000e+00 2.157385599999999889e-02 -2.250645100000000023e-02 1.035876362399999984e+01
1.053819443899999975e+01 0.000000000000000000e+00 0.000000000000000000e+00 2.444703800000000080e-02 1.095692336499999975e+01 0.000000000000000000e+00 2.190800700000000018e-02 2.272614499999999968e-02 1.050798751700000011e+01
1.041997824699999953e+01 0.000000000000000000e+00 0.000000000000000000e+00 -2.413774499999999865e-02 1.083406925599999937e+01 0.000000000000000000e+00 2.163910600000000170e-02 -2.257452100000000017e-02 1.039009371500000078e+01
1.045642076899999928e+01 0.000000000000000000e+00 0.000000000000000000e+00 -2.422216400000000089e-02 1.087196000800000029e+01 0.000000000000000000e+00 2.171478599999999981e-02 -2.265347300000000036e-02 1.042643172100000015e+01
1.044738191200000088e+01 0.000000000000000000e+00 0.000000000000000000e+00 -2.420122499999999982e-02 1.086256194599999958e+01 0.000000000000000000e+00 2.169601499999999905e-02 -2.263389000000000026e-02 1.041741878700000079e+01
1.016669076800000049e+01 0.000000000000000000e+00 0.000000000000000000e+00 -2.355100799999999828e-02 1.057071610700000086e+01 0.000000000000000000e+00 2.111310500000000007e-02 -2.202578300000000017e-02 1.013753266600000025e+01
1.006754328299999912e+01 0.000000000000000000e+00 0.000000000000000000e+00 2.335519800000000062e-02 1.046757116300000057e+01 0.000000000000000000e+00 2.092956400000000119e-02 2.171116299999999860e-02 1.003868544600000057e+01
1.037909367299999985e+01 0.000000000000000000e+00 0.000000000000000000e+00 -2.404303600000000027e-02 1.079155992399999953e+01 0.000000000000000000e+00 2.155420099999999853e-02 -2.248594599999999971e-02 1.034932639800000054e+01
1.037721476199999948e+01 0.000000000000000000e+00 0.000000000000000000e+00 -2.403868400000000113e-02 1.078960634599999935e+01 0.000000000000000000e+00 2.155029899999999846e-02 -2.248187600000000133e-02 1.034745287700000027e+01
1.047127288399999934e+01 0.000000000000000000e+00 0.000000000000000000e+00 -2.425656799999999919e-02 1.088740234700000009e+01 0.000000000000000000e+00 2.174562899999999896e-02 -2.268564899999999870e-02 1.044124123900000001e+01
1.048610621699999967e+01 0.000000000000000000e+00 0.000000000000000000e+00 2.432620099999999869e-02 1.090276544800000025e+01 0.000000000000000000e+00 2.179972000000000160e-02 2.261381499999999892e-02 1.045604860199999919e+01
1.019300724800000069e+01 0.000000000000000000e+00 0.000000000000000000e+00 2.364625500000000144e-02 1.059802036500000000e+01 0.000000000000000000e+00 2.119039299999999834e-02 2.198173200000000035e-02 1.016378977799999994e+01
1.030664758300000017e+01 0.000000000000000000e+00 0.000000000000000000e+00 2.390988399999999930e-02 1.071617613199999930e+01 0.000000000000000000e+00 2.142664099999999974e-02 2.222680299999999984e-02 1.027710437200000015e+01
1.040596191400000059e+01 0.000000000000000000e+00 0.000000000000000000e+00 -2.410527599999999840e-02 1.081949591300000080e+01 0.000000000000000000e+00 2.160999799999999832e-02 -2.254415599999999922e-02 1.037611758199999912e+01
1.019201390199999935e+01 0.000000000000000000e+00 0.000000000000000000e+00 2.364395099999999986e-02 1.059698754899999962e+01 0.000000000000000000e+00 2.118832799999999933e-02 2.197959000000000024e-02 1.016279927899999969e+01
1.034623890800000012e+01 0.000000000000000000e+00 0.000000000000000000e+00 -2.396692900000000140e-02 1.075739950800000067e+01 0.000000000000000000e+00 2.148597199999999902e-02 -2.241476800000000158e-02 1.031656586199999914e+01
1.030308967799999920e+01 0.000000000000000000e+00 0.000000000000000000e+00 -2.386697399999999913e-02 1.071253552299999967e+01 0.000000000000000000e+00 2.139636400000000105e-02 -2.232128599999999921e-02 1.027354038300000028e+01
1.033000251600000041e+01 0.000000000000000000e+00 0.000000000000000000e+00 2.396406400000000020e-02 1.074045905800000078e+01 0.000000000000000000e+00 2.147519399999999953e-02 2.227716899999999944e-02 1.030039235899999994e+01
1.023480877299999925e+01 0.000000000000000000e+00 0.000000000000000000e+00 -2.370880200000000104e-02 1.064154112800000007e+01 0.000000000000000000e+00 2.125456499999999957e-02 -2.217335800000000065e-02 1.020545530799999945e+01
1.032105321200000070e+01 0.000000000000000000e+00 0.000000000000000000e+00 2.394330299999999911e-02 1.073115416000000089e+01 0.000000000000000000e+00 2.145658900000000160e-02 2.225786899999999957e-02 1.029146870800000002e+01
1.029696792999999921e+01 0.000000000000000000e+00 0.000000000000000000e+00 -2.385279300000000061e-02 1.070617049600000037e+01 0.000000000000000000e+00 2.138365100000000005e-02 -2.230802399999999922e-02 1.026743619199999991e+01
1.049076284100000045e+01 0.000000000000000000e+00 0.000000000000000000e+00 -2.430171700000000046e-02 1.090766683700000073e+01 0.000000000000000000e+00 2.178610400000000058e-02 -2.272787399999999861e-02 1.046067529900000004e+01
1.022773078400000024e+01 0.000000000000000000e+00 0.000000000000000000e+00 2.372680900000000148e-02 1.063412362000000044e+01 0.000000000000000000e+00 2.126257999999999967e-02 2.205661500000000164e-02 1.019841378099999929e+01
1.040932888500000075e+01 0.000000000000000000e+00 0.000000000000000000e+00 -2.411307600000000065e-02 1.082299668699999984e+01 0.000000000000000000e+00 2.161698999999999912e-02 -2.255145000000000066e-02 1.037947489599999962e+01
1.014354450899999982e+01 0.000000000000000000e+00 0.000000000000000000e+00 -2.349738999999999994e-02 1.054665001300000071e+01 0.000000000000000000e+00 2.106503700000000173e-02 -2.197563699999999925e-02 1.011445279099999972e+01
1.014882036600000070e+01 0.000000000000000000e+00 0.000000000000000000e+00 2.354374899999999923e-02 1.055207774299999990e+01 0.000000000000000000e+00 2.109853199999999970e-02 2.188644099999999953e-02 1.011972955399999918e+01
1.042482781200000019e+01 0.000000000000000000e+00 0.000000000000000000e+00 -2.414897900000000097e-02 1.083911154299999957e+01 0.000000000000000000e+00 2.164917699999999862e-02 -2.258502800000000005e-02 1.039492937200000000e+01
1.010590855899999951e+01 0.000000000000000000e+00 0.000000000000000000e+00 -2.341020699999999885e-02 1.050751840600000087e+01 0.000000000000000000e+00 2.098687899999999995e-02 -2.189409999999999967e-02 1.007692478000000058e+01
1.020312299899999964e+01 0.000000000000000000e+00 0.000000000000000000e+00 2.366972300000000015e-02 1.060853805900000069e+01 0.000000000000000000e+00 2.121142200000000061e-02 2.200354699999999830e-02 1.017387653299999961e+01
1.045662475499999999e+01 0.000000000000000000e+00 0.000000000000000000e+00 -2.422263599999999878e-02 1.087217210000000023e+01 0.000000000000000000e+00 2.171520899999999921e-02 -2.265391500000000016e-02 1.042663512200000042e+01
1.009782637600000044e+01 0.000000000000000000e+00 0.000000000000000000e+00 -2.339148400000000058e-02 1.049911503599999918e+01 0.000000000000000000e+00 2.097009500000000110e-02 -2.187659100000000079e-02 1.006886577699999918e+01
1.041859934999999915e+01 0.000000000000000000e+00 0.000000000000000000e+00 2.416959499999999858e-02 1.083257623499999944e+01 0.000000000000000000e+00 2.165937899999999944e-02 2.246823300000000065e-02 1.038873523700000057e+01
1.007255305400000012e+01 0.000000000000000000e+00 0.000000000000000000e+00 2.336681999999999995e-02 1.047277999399999970e+01 0.000000000000000000e+00 2.093997900000000092e-02 2.172196599999999880e-02 1.004368085599999993e+01
1.040176256500000029e+01 0.000000000000000000e+00 0.000000000000000000e+00 -2.409554900000000083e-02 1.081512968100000016e+01 0.000000000000000000e+00 2.160127699999999859e-02 -2.253505800000000017e-02 1.037193027600000050e+01
1.057036071099999930e+01 0.000000000000000000e+00 0.000000000000000000e+00 2.452165900000000121e-02 1.099036774400000027e+01 0.000000000000000000e+00 2.197487799999999977e-02 2.279551399999999936e-02 1.054006158600000020e+01
1.050040409300000022e+01 0.000000000000000000e+00 0.000000000000000000e+00 -2.432404999999999984e-02 1.091769123299999933e+01 0.000000000000000000e+00 2.180612599999999859e-02 -2.274876099999999929e-02 1.047028889999999990e+01
1.046710869400000021e+01 0.000000000000000000e+00 0.000000000000000000e+00 2.428212999999999899e-02 1.088301306900000043e+01 0.000000000000000000e+00 2.176022600000000057e-02 2.257284500000000110e-02 1.043710553300000043e+01
1.021001689400000068e+01 0.000000000000000000e+00 0.000000000000000000e+00 2.368571499999999955e-02 1.061570587900000007e+01 0.000000000000000000e+00 2.122575399999999946e-02 2.201841400000000004e-02 1.018075066699999986e+01
1.023882402099999922e+01 0.000000000000000000e+00 0.000000000000000000e+00 2.375254400000000043e-02 1.064565764099999967e+01 0.000000000000000000e+00 2.128564200000000045e-02 2.208053800000000025e-02 1.020947522099999993e+01
1.042950063800000038e+01 0.000000000000000000e+00 0.000000000000000000e+00 -2.415980300000000053e-02 1.084397006800000085e+01 0.000000000000000000e+00 2.165888100000000135e-02 -2.259515100000000082e-02 1.039958879599999975e+01
1.037312435099999952e+01 0.000000000000000000e+00 0.000000000000000000e+00 -2.402920899999999929e-02 1.078535338200000027e+01 0.000000000000000000e+00 2.154180500000000067e-02 -2.247301399999999949e-02 1.034337419699999927e+01
1.045525573900000005e+01 0.000000000000000000e+00 0.000000000000000000e+00 -2.421946499999999905e-02 1.087074868000000016e+01 0.000000000000000000e+00 2.171236600000000030e-02 -2.265094900000000008e-02 1.042527003200000024e+01
1.042172855699999978e+01 0.000000000000000000e+00 0.000000000000000000e+00 -2.414180000000000145e-02 1.083588912399999948e+01 0.000000000000000000e+00 2.164274100000000006e-02 -2.257831299999999916e-02 1.039183900599999966e+01
1.035095851400000022e+01 0.000000000000000000e+00 0.000000000000000000e+00 -2.397786199999999909e-02 1.076230667199999935e+01 0.000000000000000000e+00 2.149577299999999927e-02 -2.242499300000000070e-02 1.032127193100000007e+01
1.013348291199999984e+01 0.000000000000000000e+00 0.000000000000000000e+00 -2.347408200000000028e-02 1.053618856699999995e+01 0.000000000000000000e+00 2.104414300000000126e-02 -2.195383899999999930e-02 1.010442004999999988e+01
1.035395074000000015e+01 0.000000000000000000e+00 0.000000000000000000e+00 2.401961999999999847e-02 1.076535885100000023e+01 0.000000000000000000e+00 2.152497999999999911e-02 2.232881499999999839e-02 1.032427193800000076e+01
1.040512340299999927e+01 0.000000000000000000e+00 0.000000000000000000e+00 -2.410333400000000056e-02 1.081862407899999923e+01 0.000000000000000000e+00 2.160825699999999877e-02 -2.254233900000000151e-02 1.037528147499999953e+01
1.009720883499999999e+01 0.000000000000000000e+00 0.000000000000000000e+00 2.342401699999999837e-02 1.049841545900000028e+01 0.000000000000000000e+00 2.099123599999999992e-02 2.177513799999999944e-02 1.006826596400000007e+01
1.044529340899999958e+01 0.000000000000000000e+00 0.000000000000000000e+00 2.423152199999999840e-02 1.086033096699999945e+01 0.000000000000000000e+00 2.171487399999999859e-02 2.252579999999999860e-02 1.041535277999999920e+01
1.049682332699999954e+01 0.000000000000000000e+00 0.000000000000000000e+00 -2.431575600000000087e-02 1.091396816800000025e+01 0.000000000000000000e+00 2.179868899999999957e-02 -2.274100399999999869e-02 1.046671840399999986e+01
1.032346137799999930e+01 0.000000000000000000e+00 0.000000000000000000e+00 2.394889000000000046e-02 1.073365801199999936e+01 0.000000000000000000e+00 2.146159599999999945e-02 2.226306299999999960e-02 1.029386997099999945e+01
1.028076342800000020e+01 0.000000000000000000e+00 0.000000000000000000e+00 -2.381525599999999993e-02 1.068932202599999925e+01 0.000000000000000000e+00 2.134999900000000145e-02 -2.227291699999999972e-02 1.025127816500000044e+01
1.021046360300000089e+01 0.000000000000000000e+00 0.000000000000000000e+00 2.368675199999999842e-02 1.061617033699999979e+01 0.000000000000000000e+00 2.122668299999999966e-02 2.201937699999999970e-02 1.018119609500000067e+01
1.015362269499999925e+01 0.000000000000000000e+00 0.000000000000000000e+00 -2.352073600000000042e-02 1.055712870700000039e+01 0.000000000000000000e+00 2.108596700000000060e-02 -2.199747100000000108e-02 1.012450207200000030e+01
1.048742358500000016e+01 0.000000000000000000e+00 0.000000000000000000e+00 2.432925699999999997e-02 1.090413516099999924e+01 0.000000000000000000e+00 2.180245899999999973e-02 2.261665499999999940e-02 1.045736219399999989e+01
1.019387425799999924e+01 0.000000000000000000e+00 0.000000000000000000e+00 2.364826700000000059e-02 1.059892182499999969e+01 0.000000000000000000e+00 2.119219500000000048e-02 2.198360200000000139e-02 1.016465430300000072e+01
1.047531125000000074e+01 0.000000000000000000e+00 0.000000000000000000e+00 -2.426592299999999827e-02 1.089160119900000012e+01 0.000000000000000000e+00 2.175401500000000155e-02 -2.269439800000000104e-02 1.044526802400000065e+01
1.014047328400000048e+01 0.000000000000000000e+00 0.000000000000000000e+00 -2.349027500000000143e-02 1.054345673699999963e+01 0.000000000000000000e+00 2.105865900000000041e-02 -2.196898400000000043e-02 1.011139037400000085e+01
1.016860179700000089e+01 0.000000000000000000e+00 0.000000000000000000e+00 2.358963799999999958e-02 1.057264517800000014e+01 0.000000000000000000e+00 2.113965599999999972e-02 2.192909999999999998e-02 1.013945428399999926e+01
