9.091000000000000469e-02 2.709729999999999972e+00 2.367529999999999912e+00 1.012242999999999959e+01 2.775939999999999852e+00 7.452539999999999942e+00 3.731400000000000272e-01 8.152049999999999130e+00 2.534240000000000048e+00 1.003472000000000008e+01 8.056010000000000559e+00 7.409980000000000011e+00 4.977669999999999817e+00 2.341050000000000075e+00 2.604740000000000055e+00 5.155170000000000030e+00 2.775929999999999787e+00 7.549249999999999794e+00 5.238500000000000156e+00 7.835639999999999716e+00 2.496259999999999923e+00 5.376699999999999591e+00 7.863199999999999967e+00 7.466879999999999740e+00 3.013520000000000199e+00 4.914920000000000400e+00 2.613780000000000214e+00 2.642180000000000195e+00 4.978010000000000268e+00 7.518019999999999925e+00 2.886249999999999982e+00 1.006304000000000087e+01 2.495319999999999983e+00 2.624029999999999863e+00 1.028574000000000055e+01 7.531430000000000291e+00 7.528480000000000061e+00 4.943660000000000387e+00 2.358270000000000088e+00 7.486049999999999649e+00 4.940010000000000012e+00 7.644099999999999895e+00 7.761750000000000149e+00 1.007014999999999993e+01 2.419859999999999900e+00 8.018530000000000157e+00 1.063513999999999982e+01 7.874170000000000336e+00 2.605750000000000011e+00 2.215310000000000112e+00 5.099529999999999674e+00 2.636890000000000178e+00 2.071050000000000058e+00 1.006902000000000008e+01 2.592099999999999849e+00 7.573990000000000222e+00 5.218539999999999957e+00 2.553240000000000176e+00 7.572140000000000093e+00 9.996750000000000469e+00 7.798219999999999708e+00 2.228720000000000034e+00 4.808370000000000033e+00 7.699970000000000425e+00 2.271560000000000024e+00 5.695000000000000062e-02 7.724330000000000140e+00 8.067700000000000315e+00 5.117910000000000181e+00 7.724920000000000009e+00 7.829010000000000247e+00 1.014549000000000056e+01 1.128500000000000059e-01 5.389400000000000190e+00 4.968759999999999621e+00 1.028942999999999941e+01 5.491229999999999833e+00 1.006026999999999916e+01 1.029667000000000066e+01 5.714999999999999941e-02 5.087839999999999918e+00 1.292500000000000038e-01 1.215999999999999998e-01 5.414999999999999675e-02 4.986100000000000421e+00 5.730970000000000120e+00 4.859079999999999622e+00 4.887719999999999843e+00 5.363129999999999953e+00 1.203000000000000076e-02 5.200309999999999988e+00 1.063034000000000034e+01 5.300489999999999924e+00 5.178399999999999892e+00 1.049573999999999963e+01 1.023699000000000048e+01 4.300519999999999676e+00 4.011260000000000048e+00 3.761610000000000120e+00 4.148119999999999585e+00 4.116450000000000387e+00 8.745599999999999596e+00 4.695809999999999818e+00 9.322110000000000340e+00 3.648229999999999862e+00 4.202790000000000248e+00 9.570090000000000430e+00 8.859999999999999432e+00 9.311730000000000729e+00 4.358839999999999826e+00 3.655660000000000132e+00 9.418509999999999494e+00 4.405190000000000161e+00 8.485350000000000392e+00 9.581469999999999487e+00 9.736779999999999546e+00 3.513100000000000112e+00 9.341229999999999478e+00 9.625310000000000699e+00 8.825340000000000629e+00 3.655279999999999863e+00 7.124300000000000077e-01 1.186490000000000045e+00 3.674389999999999823e+00 9.475099999999999634e-01 6.331400000000000361e+00 3.722729999999999873e+00 6.315970000000000084e+00 1.134540000000000104e+00 3.680530000000000079e+00 6.262419999999999654e+00 6.379179999999999851e+00 8.897940000000000182e+00 9.303399999999999448e-01 1.239919999999999911e+00 9.007680000000000575e+00 1.225810000000000066e+00 6.345209999999999795e+00 8.430339999999999279e+00 6.196659999999999613e+00 1.133920000000000039e+00 8.719070000000000320e+00 6.580250000000000377e+00 6.415650000000000297e+00 4.007349999999999746e+00 1.239349999999999952e+00 3.782960000000000100e+00 4.411609999999999587e+00 1.583930000000000060e+00 9.124060000000000059e+00 4.089489999999999625e+00 6.798860000000000348e+00 3.586650000000000116e+00 3.994489999999999874e+00 6.896320000000000228e+00 8.820259999999999323e+00 9.636219999999999786e+00 1.721430000000000016e+00 3.980949999999999989e+00 8.987149999999999750e+00 1.413529999999999953e+00 8.900499999999999190e+00 9.380630000000000024e+00 7.076559999999999739e+00 4.221230000000000260e+00 9.248139999999999361e+00 6.993529999999999802e+00 9.030739999999999768e+00 3.561980000000000146e+00 3.445269999999999833e+00 1.257949999999999902e+00 3.507880000000000109e+00 3.537780000000000147e+00 6.402160000000000295e+00 3.767490000000000006e+00 8.582509999999999195e+00 1.328699999999999992e+00 3.897940000000000182e+00 8.989259999999999806e+00 6.311709999999999710e+00 9.084400000000000475e+00 3.561280000000000001e+00 1.227810000000000068e+00 8.543229999999999436e+00 3.699699999999999989e+00 6.177539999999999587e+00 9.045519999999999783e+00 8.840740000000000265e+00 9.550600000000000200e-01 8.823800000000000310e+00 9.404740000000000322e+00 6.398119999999999585e+00 1.662900000000000045e+00 7.225899999999999546e-01 3.693610000000000060e+00 1.805539999999999923e+00 5.935200000000000475e-01 9.049260000000000304e+00 1.731270000000000087e+00 6.092380000000000351e+00 4.030540000000000234e+00 1.740459999999999896e+00 6.132150000000000212e+00 8.894059999999999633e+00 7.079970000000000319e+00 4.436200000000000143e-01 3.855119999999999880e+00 6.990999999999999659e+00 5.682500000000000329e-01 9.323510000000000630e+00 6.802399999999999558e+00 6.078839999999999577e+00 3.947029999999999816e+00 6.560959999999999681e+00 6.162429999999999630e+00 9.092409999999999215e+00 1.323550000000000004e+00 4.476619999999999600e+00 1.192260000000000097e+00 8.275299999999999878e-01 4.385710000000000441e+00 6.549000000000000377e+00 1.222120000000000095e+00 9.647510000000000474e+00 1.267419999999999991e+00 9.542399999999999771e-01 9.774029999999999774e+00 6.410919999999999952e+00 6.490429999999999922e+00 3.927849999999999842e+00 9.716399999999999482e-01 6.162630000000000052e+00 4.412099999999999689e+00 6.110970000000000013e+00 6.568060000000000009e+00 9.392630000000000479e+00 1.137029999999999985e+00 6.277650000000000396e+00 9.280879999999999797e+00 6.391440000000000232e+00 1.997400000000000064e+00 3.323690000000000033e+00 3.374410000000000132e+00 1.639480000000000048e+00 3.302999999999999936e+00 8.918559999999999377e+00 1.967680000000000096e+00 8.613950000000000884e+00 3.811890000000000001e+00 1.482879999999999976e+00 8.694269999999999499e+00 8.728920000000000456e+00 6.695590000000000153e+00 3.169490000000000141e+00 3.458340000000000192e+00 6.648460000000000036e+00 3.244409999999999794e+00 8.757279999999999731e+00 7.209900000000000198e+00 8.434839999999999449e+00 3.302459999999999951e+00 6.905680000000000263e+00 8.824859999999999260e+00 8.799239999999999284e+00 1.072899999999999965e+00 1.691470000000000029e+00 1.055299999999999905e+00 1.265260000000000051e+00 1.458020000000000094e+00 6.503420000000000201e+00 8.238600000000000367e-01 7.283839999999999648e+00 7.939300000000000246e-01 1.117960000000000065e+00 6.778749999999999609e+00 6.286190000000000389e+00 5.809999999999999609e+00 1.094170000000000087e+00 1.462050000000000072e+00 6.406130000000000102e+00 1.579709999999999948e+00 6.270340000000000025e+00
1.013760000000000083e+01 2.768839999999999968e+00 2.330550000000000122e+00 1.015900000000000070e+01 2.616719999999999935e+00 7.484950000000000436e+00 1.017880000000000074e+01 8.176220000000000709e+00 2.454709999999999948e+00 1.013119999999999976e+01 7.914130000000000109e+00 7.491769999999999818e+00 5.153419999999999668e+00 2.619940000000000158e+00 2.402969999999999828e+00 5.181540000000000035e+00 2.581970000000000098e+00 7.429529999999999745e+00 5.111930000000000085e+00 7.979440000000000310e+00 2.345250000000000057e+00 5.122510000000000119e+00 7.842060000000000031e+00 7.542329999999999757e+00 2.684610000000000163e+00 4.829469999999999708e+00 2.506889999999999841e+00 2.818039999999999878e+00 4.864690000000000403e+00 7.721849999999999881e+00 2.565170000000000172e+00 1.037184000000000061e+01 2.364339999999999886e+00 2.759869999999999823e+00 9.973160000000000025e+00 7.493739999999999846e+00 7.601510000000000211e+00 5.077350000000000030e+00 2.384879999999999889e+00 7.463709999999999845e+00 5.085309999999999775e+00 7.271919999999999717e+00 7.658949999999999925e+00 1.027683999999999997e+01 2.314849999999999852e+00 7.624299999999999855e+00 1.028584000000000032e+01 7.479210000000000136e+00 2.498940000000000161e+00 2.359360000000000124e+00 5.286529999999999951e+00 2.693330000000000002e+00 2.172969999999999846e+00 1.004353000000000051e+01 2.570180000000000131e+00 7.402479999999999727e+00 5.030350000000000321e+00 2.379550000000000054e+00 7.618290000000000006e+00 2.043300000000000116e-01 7.846359999999999779e+00 2.134980000000000100e+00 5.057400000000000340e+00 7.589760000000000062e+00 2.309489999999999821e+00 1.010585000000000022e+01 7.503720000000000390e+00 7.744620000000000282e+00 5.111069999999999780e+00 7.778340000000000032e+00 7.595950000000000202e+00 1.015634999999999977e+01 2.582999999999999879e-02 5.456819999999999560e+00 5.073400000000000354e+00 1.017050000000000054e+01 5.258350000000000080e+00 1.017675000000000018e+01 2.031000000000000028e-01 1.055544000000000082e+01 4.911520000000000330e+00 4.299000000000000044e-02 4.009999999999999676e-03 1.009045000000000059e+01 5.400800000000000267e+00 5.283599999999999852e+00 4.922200000000000131e+00 5.195630000000000415e+00 5.422909999999999897e+00 1.778000000000000067e-02 5.126890000000000391e+00 2.293600000000000083e-01 5.173820000000000086e+00 5.101759999999999629e+00 1.051393999999999984e+01 1.009704999999999941e+01 4.153459999999999930e+00 4.286069999999999602e+00 3.647879999999999789e+00 4.478509999999999991e+00 4.320170000000000066e+00 8.735120000000000218e+00 4.039539999999999687e+00 9.732519999999999172e+00 3.565399999999999903e+00 4.375359999999999694e+00 9.569910000000000139e+00 8.500740000000000407e+00 9.412449999999999761e+00 4.474689999999999834e+00 3.453930000000000167e+00 9.310639999999999361e+00 4.372480000000000366e+00 8.408319999999999794e+00 9.136380000000000834e+00 9.838169999999999860e+00 3.455769999999999786e+00 9.387150000000000105e+00 9.494009999999999394e+00 8.641099999999999781e+00 3.905180000000000096e+00 9.207199999999999829e-01 1.524929999999999897e+00 3.873479999999999812e+00 9.913300000000000445e-01 6.386829999999999785e+00 3.795240000000000169e+00 6.495029999999999859e+00 1.416760000000000019e+00 3.841709999999999958e+00 6.133630000000000138e+00 6.352899999999999991e+00 8.933460000000000178e+00 1.146200000000000108e+00 1.382360000000000033e+00 9.069229999999999237e+00 1.155250000000000110e+00 6.518659999999999677e+00 8.621150000000000091e+00 6.263329999999999842e+00 1.314240000000000075e+00 8.779749999999999943e+00 6.367899999999999672e+00 6.382929999999999993e+00 4.284489999999999910e+00 1.826000000000000068e+00 4.121590000000000309e+00 4.528400000000000425e+00 1.869979999999999976e+00 9.205709999999999837e+00 4.365730000000000111e+00 6.902820000000000178e+00 3.919459999999999944e+00 3.888079999999999981e+00 7.253549999999999720e+00 8.954510000000000858e+00 9.439059999999999562e+00 1.580810000000000048e+00 4.015819999999999723e+00 9.493809999999999860e+00 1.800310000000000077e+00 9.251730000000000231e+00 9.445619999999999905e+00 7.134590000000000209e+00 3.986959999999999837e+00 9.432850000000000179e+00 7.067599999999999660e+00 9.237959999999999283e+00 3.667879999999999807e+00 3.540220000000000145e+00 1.256159999999999943e+00 3.611749999999999794e+00 3.543210000000000193e+00 6.370320000000000427e+00 3.864689999999999959e+00 9.033590000000000231e+00 9.520899999999999919e-01 3.662479999999999958e+00 8.592779999999999418e+00 6.265889999999999738e+00 8.850120000000000431e+00 3.580540000000000056e+00 9.720199999999999951e-01 9.019750000000000156e+00 3.716089999999999893e+00 5.871059999999999945e+00 8.834350000000000591e+00 9.039360000000000284e+00 1.101720000000000033e+00 8.838710000000000733e+00 9.020009999999999195e+00 6.055559999999999832e+00 1.688109999999999999e+00 5.980100000000000415e-01 3.908339999999999925e+00 2.185039999999999871e+00 3.800499999999999989e-01 9.110689999999999955e+00 1.879490000000000105e+00 5.582019999999999982e+00 4.277960000000000207e+00 1.603960000000000052e+00 5.891000000000000014e+00 9.143649999999999167e+00 6.802679999999999616e+00 7.361100000000000421e-01 3.951020000000000199e+00 6.825470000000000148e+00 4.924700000000000188e-01 9.135609999999999786e+00 7.043029999999999902e+00 5.899600000000000399e+00 4.344100000000000072e+00 6.664850000000000385e+00 6.029130000000000322e+00 8.888109999999999289e+00 1.189999999999999947e+00 4.143679999999999808e+00 1.087480000000000002e+00 1.275069999999999926e+00 3.986419999999999852e+00 6.345419999999999838e+00 1.204839999999999911e+00 9.368779999999999220e+00 1.131890000000000063e+00 1.227800000000000002e+00 9.239750000000000796e+00 5.987409999999999677e+00 6.270299999999999763e+00 4.019389999999999574e+00 8.777599999999999847e-01 6.089610000000000412e+00 3.874509999999999899e+00 6.027040000000000397e+00 6.221169999999999867e+00 9.315929999999999822e+00 1.091290000000000093e+00 6.264300000000000423e+00 9.266690000000000538e+00 6.276080000000000325e+00 1.799309999999999965e+00 3.001129999999999853e+00 3.379579999999999806e+00 1.714679999999999982e+00 3.273200000000000109e+00 8.840230000000000032e+00 1.779349999999999987e+00 8.439870000000000871e+00 3.313450000000000006e+00 1.782999999999999918e+00 8.505559999999999121e+00 8.579359999999999431e+00 6.972949999999999982e+00 3.258640000000000203e+00 3.402519999999999989e+00 7.240929999999999644e+00 2.954639999999999933e+00 8.206129999999999924e+00 6.827770000000000117e+00 8.652419999999999334e+00 3.331230000000000135e+00 7.025079999999999991e+00 8.529249999999999332e+00 8.533609999999999474e+00 1.256580000000000030e+00 1.407189999999999941e+00 1.053320000000000034e+00 1.300130000000000008e+00 1.144030000000000102e+00 6.466560000000000308e+00 9.542399999999999771e-01 6.718689999999999607e+00 1.457559999999999967e+00 1.090619999999999923e+00 6.757209999999999717e+00 6.373890000000000278e+00 6.350909999999999833e+00 1.197189999999999976e+00 1.311960000000000015e+00 6.483150000000000190e+00 1.314829999999999943e+00 6.454830000000000290e+00
1.020217000000000063e+01 2.461100000000000065e+00 2.692839999999999900e+00 1.033787000000000056e+01 2.477040000000000131e+00 7.719380000000000130e+00 1.295999999999999930e-01 7.779740000000000322e+00 2.668979999999999908e+00 2.136399999999999966e-01 7.522160000000000402e+00 7.687649999999999650e+00 5.310970000000000191e+00 2.255689999999999973e+00 2.421060000000000212e+00 5.415399999999999991e+00 2.212790000000000035e+00 7.770509999999999806e+00 5.121069999999999567e+00 7.761479999999999713e+00 2.579499999999999904e+00 5.379809999999999981e+00 7.840489999999999959e+00 7.806060000000000443e+00 2.775370000000000115e+00 4.818870000000000431e+00 2.106899999999999995e+00 2.849470000000000169e+00 4.747399999999999842e+00 7.753569999999999851e+00 2.665700000000000180e+00 1.035723999999999911e+01 2.476309999999999789e+00 2.594450000000000145e+00 1.046913999999999945e+01 7.742499999999999716e+00 7.785790000000000433e+00 5.342019999999999769e+00 2.495439999999999880e+00 7.733389999999999986e+00 5.066480000000000317e+00 7.785540000000000127e+00 7.782269999999999577e+00 1.050123999999999924e+01 2.630230000000000068e+00 8.024720000000000297e+00 1.057103999999999999e+01 7.910720000000000418e+00 2.852749999999999897e+00 2.933180000000000121e+00 5.015460000000000029e+00 2.647130000000000205e+00 2.623549999999999827e+00 1.020561000000000007e+01 2.636099999999999888e+00 8.354240000000000776e+00 5.375619999999999621e+00 2.650119999999999809e+00 8.327429999999999666e+00 1.035121000000000002e+01 7.823249999999999815e+00 2.844240000000000101e+00 5.019230000000000302e+00 8.046110000000000539e+00 2.806569999999999787e+00 1.019473999999999947e+01 7.812649999999999650e+00 8.353469999999999729e+00 5.296339999999999826e+00 8.096550000000000580e+00 7.922399999999999665e+00 3.400000000000000244e-04 2.171200000000000074e-01 5.512509999999999799e+00 5.024680000000000035e+00 6.183999999999999914e-02 5.544830000000000148e+00 1.042540999999999940e+01 2.591200000000000170e-01 1.484099999999999864e-01 5.233209999999999695e+00 1.050347000000000008e+01 1.562600000000000100e-01 1.757400000000000073e-01 5.169430000000000192e+00 5.395459999999999923e+00 5.060430000000000206e+00 5.332499999999999574e+00 5.762010000000000076e+00 1.025821000000000005e+01 5.315389999999999837e+00 1.086504000000000048e+01 5.142689999999999984e+00 5.461210000000000342e+00 6.421000000000000318e-02 2.288000000000000103e-02 4.229829999999999757e+00 4.146160000000000068e+00 3.727370000000000072e+00 3.951600000000000001e+00 4.377239999999999576e+00 9.505649999999999267e+00 3.572070000000000078e+00 9.608230000000000715e+00 4.350760000000000183e+00 3.674209999999999976e+00 9.968909999999999272e+00 9.601929999999999410e+00 9.190080000000000027e+00 4.169810000000000016e+00 3.839389999999999858e+00 9.400489999999999569e+00 4.101989999999999803e+00 9.231930000000000192e+00 8.759270000000000778e+00 1.001111000000000040e+01 4.347209999999999575e+00 9.100929999999999964e+00 9.672549999999999315e+00 9.640109999999999957e+00 4.115210000000000257e+00 5.691100000000000048e-01 1.646670000000000078e+00 4.150220000000000020e+00 7.082300000000000262e-01 6.955350000000000144e+00 4.187059999999999782e+00 6.353430000000000355e+00 1.351369999999999960e+00 4.085639999999999716e+00 6.223709999999999631e+00 6.837240000000000428e+00 9.186939999999999884e+00 5.668199999999999905e-01 1.473260000000000014e+00 9.592879999999999185e+00 7.262399999999999967e-01 6.783559999999999590e+00 9.176470000000000127e+00 6.423899999999999721e+00 1.334000000000000075e+00 9.259800000000000253e+00 6.447460000000000413e+00 6.670810000000000350e+00 4.203330000000000233e+00 1.471459999999999990e+00 4.279889999999999972e+00 4.280240000000000045e+00 1.707750000000000101e+00 9.577730000000000743e+00 4.099700000000000344e+00 7.010860000000000092e+00 4.167810000000000237e+00 4.124450000000000394e+00 7.119329999999999714e+00 9.200060000000000571e+00 9.191300000000000026e+00 1.637659999999999894e+00 4.071039999999999992e+00 9.443880000000000052e+00 1.665640000000000009e+00 9.501829999999999998e+00 9.380649999999999267e+00 7.080020000000000202e+00 4.135830000000000339e+00 9.580780000000000740e+00 7.045910000000000117e+00 9.325329999999999231e+00 3.698580000000000201e+00 3.293569999999999887e+00 1.463799999999999990e+00 4.442470000000000141e+00 3.617259999999999920e+00 6.341949999999999754e+00 3.708590000000000053e+00 8.878190000000000026e+00 1.741919999999999913e+00 3.708619999999999806e+00 8.965859999999999275e+00 7.037600000000000300e+00 9.176539999999999253e+00 3.680590000000000028e+00 1.503130000000000077e+00 9.602100000000000080e+00 3.439119999999999955e+00 6.347330000000000361e+00 9.037699999999999179e+00 8.837120000000000530e+00 1.989349999999999952e+00 8.889920000000000044e+00 9.073600000000000776e+00 6.828640000000000043e+00 8.912999999999999812e-01 2.247500000000000053e-01 3.325839999999999907e+00 1.412150000000000016e+00 8.380499999999999616e-01 8.906079999999999330e+00 1.273220000000000018e+00 6.006689999999999863e+00 3.259900000000000020e+00 1.306480000000000086e+00 5.826310000000000322e+00 8.379789999999999850e+00 6.301449999999999996e+00 5.981300000000000505e-01 3.294820000000000082e+00 6.677929999999999922e+00 7.937800000000000411e-01 8.870079999999999742e+00 6.656139999999999723e+00 6.261510000000000353e+00 3.579400000000000137e+00 6.606370000000000076e+00 7.082489999999999952e+00 1.020410000000000039e+00 1.655529999999999946e+00 4.305889999999999773e+00 4.508800000000000030e-01 1.908590000000000009e+00 4.658479999999999954e+00 5.945960000000000356e+00 1.326109999999999900e+00 9.734719999999999374e+00 1.069900000000000073e+00 1.175510000000000055e+00 9.625370000000000203e+00 6.181980000000000253e+00 6.659379999999999633e+00 4.539769999999999861e+00 1.041039999999999965e+00 6.963669999999999582e+00 4.488979999999999748e+00 5.955879999999999619e+00 6.947560000000000180e+00 9.902440000000000353e+00 7.442100000000000382e-01 6.500460000000000349e+00 9.566549999999999443e+00 6.332539999999999836e+00 1.513740000000000085e+00 3.369489999999999874e+00 3.199609999999999843e+00 1.600859999999999950e+00 3.266610000000000014e+00 8.274050000000000793e+00 1.369369999999999976e+00 8.621859999999999857e+00 3.747920000000000140e+00 1.415990000000000082e+00 8.856930000000000192e+00 8.854530000000000456e+00 6.517310000000000159e+00 3.393940000000000179e+00 3.472560000000000091e+00 6.943579999999999863e+00 3.365219999999999878e+00 8.736439999999999984e+00 6.544039999999999857e+00 9.012750000000000483e+00 3.575089999999999879e+00 6.781819999999999737e+00 8.950020000000000309e+00 8.737040000000000362e+00 1.046319999999999917e+00 1.737889999999999935e+00 9.712300000000000377e-01 1.728339999999999987e+00 1.296629999999999949e+00 5.859049999999999869e+00 1.291709999999999914e+00 7.128479999999999706e+00 8.959099999999999842e-01 1.174809999999999910e+00 7.046759999999999913e+00 5.918359999999999843e+00 6.449449999999999683e+00 1.673990000000000089e+00 6.829899999999999860e-01 6.441639999999999588e+00 1.432960000000000012e+00 6.147009999999999863e+00
1.342299999999999882e-01 2.310369999999999813e+00 2.469190000000000218e+00 1.020223000000000013e+01 2.088379999999999903e+00 7.835799999999999876e+00 2.145900000000000030e-01 7.724210000000000242e+00 2.255020000000000024e+00 1.024613000000000085e+01 7.681650000000000311e+00 7.646139999999999937e+00 5.156710000000000349e+00 2.390470000000000095e+00 2.433759999999999923e+00 5.551429999999999865e+00 2.353320000000000078e+00 7.482249999999999623e+00 5.051910000000000345e+00 7.834950000000000081e+00 2.594040000000000123e+00 5.087500000000000355e+00 7.505560000000000009e+00 7.581570000000000142e+00 2.646640000000000104e+00 5.200829999999999842e+00 2.683209999999999873e+00 2.639320000000000110e+00 4.856919999999999682e+00 7.800300000000000011e+00 2.555810000000000137e+00 1.038804999999999978e+01 2.067309999999999981e+00 2.557360000000000078e+00 1.033975000000000044e+01 7.601259999999999906e+00 7.833260000000000112e+00 5.238870000000000360e+00 2.579299999999999926e+00 7.973449999999999704e+00 5.004879999999999995e+00 7.592120000000000424e+00 7.869500000000000384e+00 1.055964999999999954e+01 2.615699999999999914e+00 7.694700000000000095e+00 1.015455000000000041e+01 7.520979999999999777e+00 2.746980000000000199e+00 2.699170000000000069e+00 5.159729999999999706e+00 2.758610000000000007e+00 2.803030000000000133e+00 3.266000000000000153e-02 2.467420000000000169e+00 8.322649999999999437e+00 5.058910000000000018e+00 2.793680000000000163e+00 8.083180000000000476e+00 1.009500000000000064e+01 7.951439999999999841e+00 3.050370000000000026e+00 4.946430000000000327e+00 7.975520000000000387e+00 2.750700000000000145e+00 1.023290000000000077e+01 7.840399999999999814e+00 7.902820000000000178e+00 5.058010000000000339e+00 7.598849999999999660e+00 7.806739999999999569e+00 1.021969999999999956e+01 1.417499999999999871e-01 5.502799999999999692e+00 5.225419999999999732e+00 3.950000000000000039e-02 5.176879999999999704e+00 1.025079999999999991e+01 1.012503000000000064e+01 1.073445000000000071e+01 5.219669999999999810e+00 1.940000000000000058e-02 1.040264999999999951e+01 1.030020000000000024e+01 5.293079999999999785e+00 5.077729999999999855e+00 5.184859999999999580e+00 5.167559999999999931e+00 5.396829999999999572e+00 1.031700000000000017e+01 5.126520000000000188e+00 4.343000000000000332e-02 4.983590000000000408e+00 5.522079999999999878e+00 2.358399999999999941e-01 1.000034999999999918e+01 3.535320000000000018e+00 4.427100000000000257e+00 4.377209999999999823e+00 3.900269999999999904e+00 4.321810000000000151e+00 9.381850000000000023e+00 3.700639999999999930e+00 9.952080000000000481e+00 3.913310000000000066e+00 3.783650000000000180e+00 9.750629999999999242e+00 9.135910000000000863e+00 8.960190000000000765e+00 4.624869999999999592e+00 4.170880000000000365e+00 9.397579999999999600e+00 3.851350000000000051e+00 8.989649999999999253e+00 9.043419999999999348e+00 9.829969999999999430e+00 3.935039999999999871e+00 9.236499999999999488e+00 9.209559999999999746e+00 8.970720000000000027e+00 4.211149999999999949e+00 1.029979999999999896e+00 1.291860000000000008e+00 3.742150000000000087e+00 8.969300000000000050e-01 6.473340000000000316e+00 4.019870000000000054e+00 6.408660000000000245e+00 1.368230000000000057e+00 4.192569999999999908e+00 6.027339999999999698e+00 6.703560000000000407e+00 9.242749999999999133e+00 6.755799999999999583e-01 1.556410000000000071e+00 9.128610000000000113e+00 5.491800000000000015e-01 6.779279999999999973e+00 9.365640000000000853e+00 6.177290000000000170e+00 1.360950000000000104e+00 8.803380000000000649e+00 6.275689999999999991e+00 6.185590000000000366e+00 4.154980000000000118e+00 1.628069999999999906e+00 4.024790000000000312e+00 4.315129999999999910e+00 1.865399999999999947e+00 9.067259999999999209e+00 3.553360000000000074e+00 7.149259999999999948e+00 3.849829999999999863e+00 4.145100000000000229e+00 6.945330000000000226e+00 9.170820000000000860e+00 9.162679999999999936e+00 1.685259999999999980e+00 4.137749999999999595e+00 8.825430000000000774e+00 1.322370000000000045e+00 9.243029999999999191e+00 9.085089999999999222e+00 7.092570000000000263e+00 3.726049999999999862e+00 8.923420000000000130e+00 6.463969999999999771e+00 8.940889999999999560e+00 3.852539999999999853e+00 3.767729999999999801e+00 1.757789999999999964e+00 3.863090000000000135e+00 3.409569999999999990e+00 6.821380000000000443e+00 3.699409999999999865e+00 8.919209999999999638e+00 1.334840000000000027e+00 3.750589999999999868e+00 8.807190000000000296e+00 6.614259999999999806e+00 8.926709999999999923e+00 3.568490000000000162e+00 1.427850000000000064e+00 9.205750000000000099e+00 3.568719999999999892e+00 6.615770000000000373e+00 9.169269999999999143e+00 8.737270000000000536e+00 1.170940000000000092e+00 9.164519999999999555e+00 8.955759999999999721e+00 6.351799999999999891e+00 1.329720000000000013e+00 7.810899999999999510e-01 3.255279999999999951e+00 1.093669999999999920e+00 5.770300000000000429e-01 8.646160000000000068e+00 1.059800000000000075e+00 6.091750000000000220e+00 3.439309999999999867e+00 1.153790000000000093e+00 5.807190000000000296e+00 8.796789999999999665e+00 6.510570000000000412e+00 1.044810000000000016e+00 3.343980000000000175e+00 6.547380000000000422e+00 7.889800000000000146e-01 8.362090000000000245e+00 6.338189999999999991e+00 6.433530000000000193e+00 3.974479999999999791e+00 6.627169999999999561e+00 6.824029999999999596e+00 1.392789999999999973e+00 1.302750000000000075e+00 3.966819999999999791e+00 1.041700000000000070e+00 1.647140000000000049e+00 4.414789999999999992e+00 6.172830000000000261e+00 1.378609999999999891e+00 9.303929999999999367e+00 9.994399999999999951e-01 1.509980000000000100e+00 9.863540000000000418e+00 5.707390000000000185e+00 6.357899999999999885e+00 3.864110000000000156e+00 1.226900000000000102e+00 6.567239999999999966e+00 4.326050000000000395e+00 6.528950000000000031e+00 6.570490000000000386e+00 9.538420000000000343e+00 6.292400000000000215e-01 6.424949999999999939e+00 9.569990000000000663e+00 6.121649999999999814e+00 1.308969999999999967e+00 3.676959999999999784e+00 3.865250000000000075e+00 1.826580000000000092e+00 3.093100000000000183e+00 8.706680000000000419e+00 1.308650000000000091e+00 8.769030000000000769e+00 3.485809999999999853e+00 1.513879999999999892e+00 8.521969999999999601e+00 8.423619999999999663e+00 6.262430000000000163e+00 3.659339999999999815e+00 4.023659999999999570e+00 6.691810000000000258e+00 3.438689999999999802e+00 8.804999999999999716e+00 6.653570000000000206e+00 8.890079999999999316e+00 3.389639999999999986e+00 6.851860000000000284e+00 8.208370000000000388e+00 8.426050000000000040e+00 1.223149999999999959e+00 1.343269999999999964e+00 9.236299999999999510e-01 8.909099999999999797e-01 1.788180000000000103e+00 5.959299999999999820e+00 1.458080000000000043e+00 6.734510000000000218e+00 6.502000000000000002e-01 1.029979999999999896e+00 7.017199999999999882e+00 5.958169999999999966e+00 6.552109999999999879e+00 1.519490000000000007e+00 7.801099999999999701e-01 6.540790000000000326e+00 1.672290000000000054e+00 5.818730000000000402e+00