-1.102778999999999954e+00 4.861230000000000273e-01 -2.425168999999999908e+00 -2.541129999999999778e-01 1.562672999999999979e+00 -1.319559999999999900e-01 4.071159999999999779e-01 -2.599047999999999803e+00 2.657499000000000056e+00 -1.319924000000000097e+00 9.630229999999999624e-01 4.900100000000000011e-01 -3.529849999999999932e-01 6.321379999999999777e-01 4.634008999999999823e+00 1.441534000000000093e+00 1.821036000000000099e+00 8.476139999999999786e-01 -3.967051999999999801e+00 -8.566380000000000106e-01 2.229668999999999901e+00 -6.648260000000000280e-01 -2.455881000000000203e+00 -2.375751999999999864e+00 2.417774000000000090e+00 -2.862899999999999778e+00 -1.262083999999999984e+00 5.809069999999999512e-01 -9.392169999999999686e-01 -1.823898999999999937e+00 -8.351248999999999256e+00 3.808097000000000065e+00 -2.524748999999999910e+00 -1.183356000000000074e+00 7.944130000000000358e-01 -1.143057999999999907e+00 2.867957999999999785e+00 -6.611190000000000122e-01 4.381960000000000299e+00 6.171480000000000299e-01 -4.623380000000000267e-01 -8.557510000000000394e-01 7.843419999999999837e-01 3.467049999999999854e-01 3.073141000000000123e+00 1.574354000000000031e+00 -5.290899999999999492e-01 -5.592099999999999849e-02 2.106765999999999917e+00 3.818119999999999847e-01 -1.313519999999999965e-01 3.093929999999999736e-01 -1.965629999999999877e-01 -5.298969999999999514e-01 2.574599000000000082e+00 -1.762197000000000013e+00 -1.604330999999999952e+00 -1.491657999999999928e+00 1.698000000000000074e-03 -8.596099999999999575e-02 1.737888000000000099e+00 1.883509999999999907e-01 -2.453225999999999907e+00 3.490320000000000089e-01 -5.598990000000000355e-01 -1.024810000000000026e-01 -9.263499999999999512e-02 3.320288000000000128e+00 2.422972000000000126e+00 2.116722000000000214e+00 -3.178243999999999847e+00 -1.838438999999999934e+00 -2.733550000000000146e-01 -1.853202999999999934e+00 1.162255000000000038e+00 -4.603360000000000229e-01 -1.484922999999999993e+00 -1.956348999999999894e+00 -3.080789999999999917e-01 -6.554050000000000153e-01 -2.193897000000000208e+00 -8.811679999999999513e-01 -2.514117999999999853e+00 -8.538790000000000546e-01 -9.973629999999999995e-01 3.834467000000000070e+00 3.426170000000000049e-01 -4.388919999999999710e+00 9.884089999999999820e-01 1.730690000000000006e-01 -1.645791999999999922e+00 7.908629999999999827e-01 2.481799999999999978e-02 -4.054209999999999758e-01 -2.384656999999999805e+00 9.922480000000000189e-01 5.592869999999999564e+00 -3.391713000000000200e+00 1.510509000000000102e+00 -3.940910000000000246e-01 -3.015369999999999995e-01 8.568569999999999798e-01 -1.373785999999999952e+00 1.217468999999999912e+00 8.742609999999999548e-01 -1.125108999999999915e+00 3.229884000000000199e+00 1.183966000000000074e+00 -6.595189999999999664e-01 -3.504010000000000180e-01 -2.239043000000000117e+00 1.568276999999999921e+00 -1.685764999999999958e+00 -1.342764999999999986e+00 2.264997999999999845e+00 2.353145000000000042e+00 -1.307331999999999939e+00 -9.408779999999999921e-01 2.619489999999999874e+00 2.526867000000000196e+00 -8.681389999999999940e-01 -2.397368000000000166e+00 4.047200000000000242e-01 -1.744577000000000044e+00 -1.242407999999999957e+00 6.367660000000000542e-01 2.180633999999999961e+00 1.749797000000000047e+00 5.729739999999999833e-01 2.021936000000000178e+00 -9.998359999999999470e-01 1.353698000000000068e+00 -7.186090000000000533e-01 -2.134589000000000070e+00 -4.510179999999999745e-01 -2.193299999999999805e+00 -7.241090000000000027e-01 -1.714307999999999943e+00 -2.296196999999999822e+00 7.063939999999999664e-01 -3.375980000000000092e-01 2.162044999999999995e+00 -9.772100000000000231e-02 5.967630000000000434e-01 1.945079999999999920e+00 -2.389111000000000207e+00 1.947000000000000119e-01 8.644420000000000437e-01 -2.096747000000000138e+00 -5.602240000000000553e-01 -2.545920000000000183e+00 4.457180000000000031e-01 -4.457300000000000151e-01 8.497240000000000348e-01 -3.149274000000000129e+00 -6.610549999999999482e-01 -1.199249999999999927e+00 -4.552379999999999760e-01 -1.233937999999999979e+00 -2.544452999999999854e+00 -1.863626999999999923e+00 -2.707709999999999839e-01 9.780670000000000197e-01 -6.088970000000000216e-01 -8.557709999999999484e-01 -2.299299999999999955e-01 1.819830000000000059e+00 2.439850000000000074e-01 2.921090000000000075e-01 8.483979999999999855e-01 -3.730180000000000162e-01 3.260698000000000096e+00 5.644869999999999610e-01 1.872155999999999931e+00 -2.108173999999999992e+00 6.791399999999999659e-01 -7.772289999999999477e-01 -5.272689999999999877e-01 -5.212539999999999951e-01 -4.513299999999999951e-02 8.171850000000000502e-01 5.009400000000000519e-01 1.119782000000000055e+00 -2.029800000000000007e-02 4.565110000000000001e-01 5.663010000000000543e-01 -1.608490999999999893e+00 2.361311000000000160e+00 5.896590000000000442e-01 -9.264539999999999997e-01 1.113372000000000028e+00 -6.099130000000000384e-01 -3.624100000000000099e-01 -2.312579999999999913e-01 2.136957999999999913e+00 -7.104570000000000052e-01 1.545658999999999894e+00 -4.136500000000000177e-01 1.281565999999999983e+00 -3.387109999999999843e-01 -6.222229999999999706e-01 -9.360600000000000032e-01 -9.537999999999999604e-03 -1.103445999999999927e+00 1.104590000000000016e-01 -6.964249999999999607e-01 1.706010000000000026e-01 4.048510000000000164e-01 1.875828000000000051e+00 -2.741963000000000150e+00 1.007328000000000001e+00 1.822880000000000056e-01 -2.930763999999999925e+00 1.156762999999999986e+00 4.235019999999999896e-01 1.411020000000000052e-01 8.489550000000000152e-01 -1.652573999999999987e+00 -1.772809999999999997e+00 3.234179000000000137e+00 4.303003000000000355e+00 -1.597671999999999981e+00 -7.389430000000000165e-01 5.498309999999999587e-01 -2.871230000000000171e-01 1.510879000000000083e+00 2.489819999999999922e+00 -1.354336999999999902e+00 -1.477829000000000059e+00 -1.327058000000000071e+00 -2.630539000000000183e+00 -1.210215999999999958e+00 3.441690000000000027e-01 -5.584639999999999604e-01 1.663874999999999993e+00 -6.942139999999999977e-01 1.186692000000000080e+00 1.051655000000000006e+00 -3.991279999999999828e-01 3.419610000000000150e-01 -2.781394000000000144e+00 1.368479999999999919e+00 -1.854964999999999975e+00 8.670250000000000457e-01 2.195920999999999790e+00 3.731466000000000172e+00 8.401509999999999811e-01 -1.076781999999999906e+00 3.023788000000000142e+00 1.739390000000000103e-01 -1.730420000000000014e-01 2.266999000000000208e+00 3.378149999999999764e-01 2.311926000000000148e+00 1.683481000000000005e+00 2.907649999999999957e-01 9.892279999999999962e-01 1.655550000000000077e+00 8.496409999999999796e-01 1.096319000000000043e+00 -8.198860000000000037e-01 2.373800000000000077e-01 -7.877720000000000278e-01 8.227419999999999733e-01 -1.139211999999999891e+00 -3.704100000000000170e-01 -1.919184999999999919e+00 9.592889999999999473e-01 -1.908360999999999974e+00 -1.593400000000000025e-02 -4.128891999999999562e+00 -1.105796999999999919e+00 -5.090780000000000305e-01 1.509131000000000000e+00 1.152906999999999904e+00 2.953078999999999787e+00 1.990056000000000047e+00 -4.261860000000000093e-01 -1.336894000000000027e+00 6.415669999999999984e-01 1.474280000000000035e-01 1.391664999999999930e+00
1.796240999999999977e+00 8.760569999999999746e-01 7.433920000000000528e-01 3.051321999999999868e+00 -1.701716999999999924e+00 2.128359999999999808e+00 -3.637537000000000020e+00 2.414814999999999934e+00 -1.738629999999999898e-01 -1.986790999999999974e+00 -1.116859000000000046e+00 -1.665229000000000070e+00 3.172409999999999952e-01 4.432740000000000014e-01 1.167459999999999942e+00 -3.631733000000000100e+00 1.041703999999999963e+00 -2.676597000000000115e+00 5.026969999999999494e-01 1.676960999999999924e+00 4.116534999999999833e+00 2.414753999999999845e+00 -6.136300000000000088e-01 1.036696000000000062e+00 -4.482900000000000218e-01 8.322000000000000230e-02 1.772189999999999876e-01 9.628550000000000164e-01 -1.441359000000000057e+00 7.757220000000000226e-01 3.043159999999999754e-01 -1.224984999999999991e+00 7.859990000000000032e-01 -2.468716000000000133e+00 2.882833000000000201e+00 -2.376989000000000019e+00 -1.736858999999999931e+00 -8.430029999999999468e-01 4.222719999999999807e-01 -1.308737999999999957e+00 1.608945999999999987e+00 -1.000852000000000075e+00 -9.381410000000000027e-01 -3.655200000000000116e-02 7.923280000000000323e-01 -1.359847999999999946e+00 -3.228150999999999993e+00 -1.964267999999999903e+00 -1.921953999999999940e+00 7.362499999999999600e-02 1.266475999999999935e+00 -7.542889999999999873e-01 2.554669999999999996e-01 -2.363389999999999935e-01 2.597893000000000008e+00 -5.109730000000000105e-01 -1.137245000000000061e+00 -1.025050999999999934e+00 -1.576292999999999944e+00 6.380500000000000060e-02 -4.062724000000000224e+00 -1.419232999999999967e+00 -2.056693000000000104e+00 -3.202427000000000135e+00 -3.056380000000000208e-01 5.156509999999999705e-01 1.327700000000000061e-02 -6.854499999999999482e-02 -8.464209999999999789e-01 1.543104999999999949e+00 -4.282179999999999875e-01 1.593183000000000016e+00 -1.516853999999999925e+00 2.289321000000000161e+00 1.400759000000000087e+00 2.397454000000000196e+00 1.127280000000000060e+00 -2.483889999999999987e-01 -1.927022999999999930e+00 -2.589287999999999812e+00 -6.194149000000000349e+00 -6.080010000000000137e-01 -1.016860000000000097e+00 -5.116300000000000014e-02 2.445610999999999979e+00 -3.588589999999999836e-01 1.679400000000000059e-01 -1.375200000000000033e-01 1.219859999999999944e+00 2.818959999999999799e-01 -9.885850000000000470e-01 2.628655000000000186e+00 -8.298450000000000548e-01 -2.090066000000000201e+00 -2.076912000000000091e+00 -3.464770999999999823e+00 2.888255000000000017e+00 -3.318836000000000119e+00 4.333102000000000231e+00 3.017830000000000235e-01 -2.568827999999999889e+00 -3.307135999999999854e+00 1.948836999999999930e+00 2.961082000000000214e+00 -3.006997999999999838e+00 -4.648950000000000027e-01 -2.212918999999999858e+00 -2.933590999999999838e+00 -1.615840000000000054e-01 2.059968000000000021e+00 4.677700000000000191e-01 1.595919000000000088e+00 9.483580000000000343e-01 -1.311620999999999926e+00 -4.908549999999999858e-01 -1.777261999999999897e+00 -1.614705999999999975e+00 -2.174711999999999978e+00 -3.221999999999999864e-02 1.883658999999999972e+00 -8.275679999999999703e-01 -1.514334999999999987e+00 6.686159999999999881e-01 -9.480330000000000146e-01 3.791368999999999989e+00 2.341449999999999920e-01 -2.219164999999999832e+00 -1.709870000000000001e+00 -1.857299999999999951e+00 -1.160819999999999963e+00 1.082827999999999902e+00 -4.787680000000000269e-01 1.612155000000000005e+00 -1.341854000000000102e+00 2.103976999999999986e+00 1.836369999999999947e-01 -2.416220000000000034e-01 -1.223146999999999984e+00 -1.262078000000000033e+00 1.628322999999999965e+00 -1.109364999999999934e+00 9.282580000000000275e-01 -1.507827000000000028e+00 2.049548999999999843e+00 -2.298582000000000125e+00 3.301040000000000085e-01 -2.416220000000000034e-01 -2.234188000000000063e+00 -4.707180000000000253e-01 3.683549999999999880e-01 2.275262000000000118e+00 8.582739999999999814e-01 2.507426000000000155e+00 5.875190000000000135e-01 6.600840000000000041e-01 2.945229999999999793e-01 6.050099999999999922e-02 -3.903710000000000235e-01 -1.126428999999999903e+00 -2.234557000000000127e+00 4.001069000000000209e+00 -8.775499999999999967e-02 5.190099999999999714e-01 1.910914999999999919e+00 -9.435759999999999703e-01 -1.915991000000000000e+00 7.357930000000000303e-01 -1.807600000000000040e-01 1.174109000000000069e+00 -5.257500000000000506e-01 6.869669999999999943e-01 3.176347999999999949e+00 1.072278999999999982e+00 4.663089999999999735e-01 7.774450000000000527e-01 2.650939000000000156e+00 -4.294689999999999896e-01 4.125289999999999679e+00 -7.367600000000000537e-02 1.925070000000000114e-01 -1.179278999999999966e+00 6.331029999999999713e-01 -1.610999000000000070e+00 -5.828680000000000527e-01 1.478518999999999917e+00 3.604319999999999746e-01 5.488800000000000345e-01 -8.374930000000000430e-01 -8.203369999999999829e-01 -2.581080000000000041e-01 -2.903744000000000103e+00 3.184258999999999951e+00 2.642590000000000217e-01 9.565000000000000585e-03 1.878236999999999934e+00 1.196530000000000094e+00 1.090006000000000030e+00 -1.792357999999999896e+00 2.733450000000000046e-01 -4.855030000000000179e-01 1.889530000000000098e-01 4.847549999999999915e-01 6.820779999999999621e-01 -2.282626000000000044e+00 8.754880000000000440e-01 1.247694999999999999e+00 3.737480000000000246e-01 1.933610999999999969e+00 -6.627560000000000118e-01 2.829333999999999794e+00 3.255618000000000123e+00 -4.296849999999999836e-01 -1.409073999999999938e+00 1.411330999999999891e+00 -2.565494999999999859e+00 -7.145669999999999522e-01 1.844046999999999992e+00 1.453921000000000019e+00 -6.010389999999999899e-01 1.230000000000000017e-02 5.448969999999999647e-01 3.220952000000000037e+00 -4.876969999999999916e-01 -1.475227999999999984e+00 -1.306902000000000008e+00 2.618822999999999901e+00 9.405160000000000187e-01 1.692023000000000055e+00 -8.364270000000000316e-01 -2.429000000000000048e-01 3.600610000000000088e+00 1.718436999999999992e+00 5.777510000000000145e-01 1.615874000000000033e+00 -3.016014000000000195e+00 -1.478691999999999895e+00 3.419320000000000137e-01 -1.070502000000000065e+00 -6.288019999999999721e-01 -4.449179999999999802e-01 1.467640999999999973e+00 1.016993000000000036e+00 -4.251829999999999776e-01 6.420069999999999943e-01 -4.132890000000000175e-01 1.580025000000000013e+00 -4.764800000000000146e-01 -7.378559999999999564e-01 -8.608139999999999681e-01 -6.739230000000000498e-01 2.650370999999999810e+00 4.233310000000000128e-01 -5.235919999999999463e-01 3.084109999999999907e+00 4.806042999999999843e+00 2.665213000000000054e+00 -2.793280000000000207e-01 -5.367640000000000189e-01 -5.078129999999999589e-01 -2.317381000000000135e+00 -2.184999999999999876e-03 1.584047999999999901e+00 9.345480000000000453e-01 -5.640619999999999523e-01 1.126689999999999969e+00 -1.253810000000000091e+00 1.469425999999999899e+00 -1.425915000000000044e+00 2.196708000000000105e+00 -1.691481000000000012e+00 4.500080000000000191e-01 -1.972272000000000025e+00 -2.485390000000000099e-01 -6.029349999999999987e-01 -4.235510000000000108e-01 6.507239999999999691e-01 9.148560000000000025e-01 -3.661362000000000005e+00 -1.297760999999999942e+00 -3.256000000000000213e-03 -8.418710000000000360e-01 -5.238350000000000506e-01
1.014564000000000021e+00 2.350052999999999948e+00 6.919349999999999667e-01 7.006600000000000328e-02 -4.796611999999999654e+00 1.029165000000000108e+00 3.478331999999999979e+00 -1.103218000000000032e+00 1.659151000000000042e+00 2.414791999999999828e+00 1.087104000000000070e+00 -7.054499999999999660e-02 -1.227444999999999897e+00 -2.598552000000000195e+00 1.235173999999999994e+00 9.148910000000000098e-01 -2.720549999999999802e+00 2.330287000000000219e+00 -1.433280000000000109e+00 -7.295019999999999838e-01 3.712350999999999956e+00 -2.929809000000000108e+00 3.200429999999999886e+00 -4.363442000000000043e+00 -3.289025999999999783e+00 9.435999999999999943e-03 -6.441090000000000426e-01 6.296850000000000502e-01 1.351402999999999910e+00 -1.476882000000000028e+00 1.163523000000000085e+00 8.893529999999999491e-01 7.821759999999999824e-01 3.487379999999999924e-01 3.378023999999999916e+00 -5.270029999999999992e-01 7.059799999999999409e-02 -1.854343000000000075e+00 -1.547204999999999941e+00 -1.159702000000000011e+00 -2.018727999999999856e+00 -5.137564000000000242e+00 -2.383255999999999819e+00 6.179360000000000408e-01 -2.280524999999999913e+00 -9.293709999999999471e-01 -1.567828999999999917e+00 1.558556999999999970e+00 -1.227545000000000108e+00 -2.086666000000000132e+00 1.131107000000000085e+00 1.410789000000000071e+00 -1.378570000000000073e-01 -2.825518000000000196e+00 2.098596000000000128e+00 -1.753751000000000060e+00 6.930760000000000254e-01 -1.277420000000000000e+00 -1.542103000000000002e+00 -1.957826999999999984e+00 1.773728999999999889e+00 1.185141999999999918e+00 -2.479346000000000050e+00 4.014739999999999975e-01 2.139692000000000149e+00 3.189859999999999918e-01 -1.155747000000000080e+00 -2.750474000000000085e+00 -1.919003000000000014e+00 -1.864448000000000105e+00 2.291749999999999954e+00 2.109055999999999820e+00 2.154078000000000159e+00 8.642991999999999564e+00 -1.213815000000000088e+00 -9.843619999999999592e-01 3.564459999999999851e-01 -2.467314000000000007e+00 -2.458300000000000068e-02 -2.774099999999999830e-02 -4.913930000000000242e-01 -1.500099999999999989e+00 -2.119669000000000025e+00 3.197909999999999808e+00 -8.776289999999999925e-01 3.192814999999999959e+00 -5.705829999999999513e-01 3.508217999999999837e+00 1.423591999999999969e+00 -1.946938000000000057e+00 -1.061474000000000029e+00 -1.190149999999999958e-01 1.919407000000000085e+00 1.493608000000000047e+00 1.781979999999999953e-01 8.843450000000000477e-01 -1.164341000000000070e+00 -3.009692999999999952e+00 -1.618387000000000020e+00 7.628679999999999906e-01 -7.610700000000000243e-01 7.600789999999999491e-01 2.221538999999999930e+00 -4.200309999999999877e-01 6.949520000000000142e-01 1.681127999999999956e+00 -1.265257000000000076e+00 8.923499999999999766e-01 2.553298999999999985e+00 3.169359999999999955e-01 1.317989999999999995e+00 -3.133420000000000094e-01 -1.417678999999999911e+00 -1.258159999999999945e+00 -3.127742000000000022e+00 2.240449999999999942e-01 -1.734485000000000054e+00 1.000580000000000025e+00 6.816119999999999957e-01 3.101497000000000170e+00 -3.918869999999999854e-01 1.664806000000000008e+00 3.818550000000000000e-01 -6.519869999999999832e-01 6.578389999999999516e-01 1.713648999999999978e+00 -6.089750000000000441e+00 -1.736941000000000068e+00 -4.362059999999999826e-01 1.398295000000000066e+00 -1.475130000000000052e-01 1.691416999999999948e+00 -4.363980000000000081e-01 1.879137000000000057e+00 -6.544680000000000497e-01 9.510049999999999892e-01 5.704839999999999911e-01 2.852755000000000152e+00 -2.091091000000000033e+00 -7.718840000000000146e-01 -1.225786999999999960e+00 8.645939999999999737e-01 1.609080000000000066e+00 -1.833245000000000013e+00 4.604019999999999779e-01 1.625418999999999947e+00 4.051259999999999861e-01 -1.865690000000000126e-01 1.413977000000000039e+00 -2.182600000000000165e-02 -1.438854999999999995e+00 1.202063000000000104e+00 2.813515000000000210e+00 -1.024620000000000086e+00 -1.516699999999999937e+00 -3.206929000000000141e+00 -2.433430000000000037e-01 -4.577959999999999807e-01 5.215459999999999541e-01 2.878464999999999829e+00 -4.589280000000000026e-01 7.346909999999999830e-01 7.602130000000000276e-01 -1.051166000000000045e+00 1.147582000000000102e+00 -6.112199999999999855e-01 -1.900500000000000106e-02 -3.475999999999999923e-03 -2.344644999999999868e+00 -2.918175999999999881e+00 2.157477999999999785e+00 2.664569999999999994e-01 1.152360999999999969e+00 -3.807630000000000181e-01 -1.083617999999999970e+00 2.911321000000000048e+00 -4.873066999999999815e+00 -1.711446999999999941e+00 2.632970000000000033e-01 1.906889999999999974e-01 -1.109350999999999976e+00 9.067920000000000424e-01 6.674000000000000245e-03 -8.638240000000000363e-01 9.199490000000000167e-01 -1.475869000000000097e+00 2.908205999999999847e+00 1.485066999999999915e+00 6.448000000000000398e-01 -2.261220999999999925e+00 -1.167661000000000060e+00 -1.715206000000000008e+00 3.225950999999999791e+00 1.038647000000000098e+00 8.620609999999999662e-01 1.680787999999999949e+00 1.884762999999999966e+00 4.085300000000000042e-01 9.059829999999999828e-01 -7.117839999999999723e-01 4.076500000000000262e-02 2.765949999999999798e-01 -8.448830000000000506e-01 -2.303560000000000052e-01 -1.718053999999999970e+00 -3.229591000000000101e+00 -2.294338000000000211e+00 -1.232207999999999970e+00 -6.922049999999999592e-01 3.614310000000000023e-01 1.820475999999999983e+00 -6.176580000000000403e-01 1.184363999999999972e+00 -2.017279999999999907e-01 9.940560000000000507e-01 2.229970000000000008e-01 1.419745999999999952e+00 -1.820961999999999970e+00 1.813045999999999935e+00 -1.216584000000000110e+00 -1.472298000000000107e+00 9.559130000000000127e-01 3.330909999999999815e+00 1.548529999999999962e+00 -3.392021999999999871e+00 2.411217999999999861e+00 6.519000000000000350e-01 1.625389999999999890e-01 -2.048938999999999844e+00 -2.556800000000000184e-01 -6.968830000000000302e-01 2.976968999999999976e+00 1.062472000000000083e+00 -2.151025999999999883e+00 -2.660870000000000180e-01 5.276269999999999571e-01 -1.581348999999999894e+00 -4.256229999999999736e-01 -2.168518999999999863e+00 8.446160000000000334e-01 1.363531999999999966e+00 3.671130000000000226e-01 3.822121999999999797e+00 1.814540000000000042e-01 -2.888218999999999870e+00 -1.229780000000000095e+00 1.495813999999999977e+00 1.804554999999999909e+00 3.241042999999999896e+00 1.349279999999999924e-01 -5.311150000000000038e-01 -1.821830000000000116e-01 5.106910000000000061e-01 -7.833299999999999985e-02 1.418810000000000071e-01 -1.257033999999999985e+00 1.320203999999999933e+00 4.641930000000000223e-01 2.441117999999999899e+00 5.424999999999999822e-01 -9.044389999999999930e-01 -3.717830000000000190e+00 -2.466197000000000195e+00 1.462242000000000042e+00 -1.996699999999999864e-02 1.605374000000000079e+00 -3.373920000000000252e-01 -2.661354000000000219e+00 -2.323149999999999937e-01 5.690809999999999480e-01 -2.909114000000000200e+00 -1.175421999999999967e+00 1.936220999999999970e+00 -1.286229999999999873e-01 2.240290000000000059e-01 -4.575900000000000106e-02 1.156117999999999979e+00 -1.212808000000000108e+00 1.227786000000000044e+00 1.288566000000000100e+00 9.377499999999999725e-02 4.002519999999999967e-01
9.541100000000000136e-01 2.050393999999999828e+00 -1.783320000000000016e+00 2.746032000000000028e+00 2.382460000000000022e+00 2.041450999999999905e+00 1.613228000000000106e+00 -2.666428999999999938e+00 8.780900000000000372e-01 -1.288577000000000083e+00 5.665599999999999803e-02 -4.127310000000000145e-01 -1.790073999999999943e+00 -3.601969999999999894e-01 -1.440522000000000080e+00 4.541430000000000189e-01 6.617960000000000509e-01 1.067523000000000000e+00 1.129734999999999934e+00 5.883519999999999861e-01 -4.870450000000000057e-01 6.189930000000000154e-01 -2.085379000000000094e+00 -1.409324000000000021e+00 2.796880999999999950e+00 1.018893999999999966e+00 -1.399143999999999943e+00 2.769916999999999963e+00 5.419105000000000061e+00 2.975966000000000111e+00 1.717430000000000012e+00 1.522800000000000022e-02 2.175650000000000084e-01 2.872999999999999859e-02 6.915069999999999828e-01 3.032337000000000060e+00 1.936264999999999903e+00 2.057116999999999862e+00 -5.664449999999999763e-01 -1.630324000000000106e+00 2.481754000000000016e+00 1.044809000000000099e+00 -2.425838000000000161e+00 -2.993101999999999929e+00 3.172635999999999790e+00 -3.704660000000000175e-01 -1.544272000000000089e+00 8.406900000000000484e-02 1.957043000000000088e+00 -3.816714000000000162e+00 9.484329999999999705e-01 9.204700000000000104e-01 2.101859999999999840e+00 1.917847999999999997e+00 5.118451000000000306e+00 -5.472685000000000244e+00 -4.548479999999999746e-01 3.638231000000000215e+00 -3.675044000000000199e+00 1.271975000000000078e+00 -9.256999999999999951e-02 1.560200999999999949e+00 -9.438199999999999923e-01 2.143889999999999851e+00 3.337336000000000080e+00 1.411461999999999994e+00 -3.954610000000000070e-01 1.667137000000000091e+00 -2.311014000000000124e+00 -4.097489999999999744e-01 -5.725759999999999739e-01 2.146299999999999875e-01 1.783546999999999993e+00 1.605996999999999897e+00 5.906746000000000052e+00 1.947089999999999932e-01 1.417345999999999995e+00 8.396770000000000067e-01 -2.769683999999999813e+00 1.030240000000000045e+00 -4.870269999999999877e-01 -9.931600000000000428e-01 -1.721038000000000068e+00 -5.358899999999999775e-02 5.353000000000000119e-03 1.632668000000000008e+00 5.691260000000000208e-01 -2.581660999999999984e+00 -3.976640000000000175e-01 3.464961000000000180e+00 -2.947170999999999985e+00 -9.085349999999999815e-01 -1.567320000000000102e-01 -4.412029000000000423e+00 2.144010000000000193e+00 2.939008999999999983e+00 6.404459999999999598e-01 -1.580141000000000018e+00 9.719500000000000361e-02 -1.482482999999999995e+00 -2.486365000000000158e+00 -3.999998000000000165e+00 -2.556938000000000155e+00 2.022842999999999947e+00 -1.072508000000000017e+00 1.171985000000000054e+00 1.468879999999999908e-01 -8.609400000000000386e-01 -2.163839999999999930e-01 -9.468490000000000517e-01 -2.998461999999999961e+00 -1.607610999999999901e+00 1.501996000000000109e+00 1.054605999999999932e+00 -2.561119999999999841e+00 1.522137999999999991e+00 1.608289999999999997e-01 -3.661099999999999910e-01 1.417246000000000006e+00 1.144738999999999951e+00 -1.350273000000000057e+00 -2.121010000000000062e+00 3.345380000000000020e+00 7.013669999999999627e-01 1.243279999999999941e-01 -1.296500000000000083e-02 -2.065265999999999824e+00 -7.185880000000000045e-01 -1.218499999999999965e-02 3.907780000000000142e-01 -1.360930999999999891e+00 -1.513663999999999898e+00 5.720779999999999754e-01 1.525897000000000059e+00 -1.898479999999999890e-01 -6.449850000000000305e-01 -1.437867999999999924e+00 -1.452747999999999928e+00 -3.427770000000000206e+00 2.046171000000000184e+00 -2.105239000000000082e+00 -7.145000000000000240e-01 1.208537999999999890e+00 -1.731880000000000086e-01 -4.526970000000000161e-01 -7.282089999999999952e-01 1.622699999999999976e-01 -6.285410000000000164e-01 -2.786169999999999813e+00 1.831804999999999906e+00 8.511000000000000509e-02 -6.483999999999999764e-01 5.243379999999999708e-01 1.419613999999999931e+00 -4.275030000000000219e-01 5.192849999999999966e-01 1.271730999999999945e+00 2.453359999999999985e-01 -5.794690000000000119e-01 -9.231970000000000454e-01 -2.946369999999999822e-01 -1.062691999999999970e+00 -8.335820000000000451e-01 1.608206999999999942e+00 -3.889290000000000247e-01 2.029068000000000094e+00 -1.251076999999999995e+00 -1.089350000000000041e+00 -7.848330000000000028e-01 1.209643999999999942e+00 -9.871900000000000119e-01 -2.254103000000000190e+00 -1.698189999999999977e-01 -9.964000000000000634e-03 -9.057229999999999448e-01 -3.103066999999999798e+00 2.130704000000000153e+00 1.754000000000000004e-02 -3.410719999999999863e-01 -1.021730999999999945e+00 8.744819999999999816e-01 4.320330000000000004e-01 5.961889999999999690e-01 -2.383929999999999938e-01 1.284982999999999986e+00 -2.047759999999999803e+00 -4.547799999999999759e-02 -2.220159999999999911e+00 -2.854347999999999885e+00 9.062329999999999552e-01 6.417380000000000306e-01 -1.405696999999999974e+00 7.788699999999999790e-02 1.920228000000000046e+00 -1.135559999999999903e+00 1.929099999999999912e-02 -8.134339999999999904e-01 6.961000000000000520e-02 6.023939999999999850e-01 -1.722120000000000040e-01 -3.364526999999999823e+00 -2.327190000000000092e-01 1.115620999999999974e+00 -2.723149999999999737e-01 9.101339999999999986e-01 6.129470000000000196e-01 -1.837590000000000057e-01 7.457289999999999752e-01 -7.368179999999999730e-01 -2.028830999999999829e+00 -9.680490000000000483e-01 -3.803590000000000027e-01 2.505317999999999934e+00 -1.805004999999999971e+00 -3.098031999999999897e+00 -3.076951999999999909e+00 -1.209996999999999989e+00 3.496455000000000091e+00 2.946098999999999801e+00 -1.688495000000000079e+00 -3.331009999999999804e-01 -2.399151999999999951e+00 -2.805840000000000001e-01 -1.970280999999999949e+00 6.201029999999999598e-01 -1.569058999999999982e+00 -4.787359999999999949e-01 -1.276960000000000095e+00 1.504437000000000024e+00 1.959724000000000022e+00 1.464070000000000094e-01 1.220064000000000037e+00 -3.376720000000000277e-01 4.188750999999999891e+00 3.203978000000000215e+00 -1.845002000000000031e+00 -1.449365999999999932e+00 1.276823000000000041e+00 -2.756400000000000169e-02 -1.795096000000000025e+00 1.316789999999999905e+00 7.574659999999999727e-01 -3.676340000000000163e-01 -2.190386000000000166e+00 1.241667999999999994e+00 -9.822530000000000427e-01 -1.226685000000000025e+00 -4.914990000000000192e-01 -3.780129999999999879e-01 8.229200000000000403e-02 6.856199999999999795e-02 -8.026820000000000066e-01 2.277684999999999960e+00 -2.068789000000000211e+00 -1.848016000000000103e+00 8.172049999999999592e-01 -1.423837000000000019e+00 1.925060000000000104e-01 9.327339999999999520e-01 8.076389999999999958e-01 2.538489999999999913e+00 -6.242999999999999938e-02 -2.013479999999999936e+00 -1.088422000000000001e+00 -3.862599999999999922e-01 -1.386365000000000069e+00 2.172520000000000007e-01 4.343509999999999871e-01 1.037468999999999975e+00 -1.542342000000000102e+00 1.383688000000000029e+00 -2.094679999999999875e-01 1.263241000000000058e+00 1.843640000000000001e-01 6.587920000000000442e-01 2.925603999999999871e+00 -1.366038000000000086e+00 2.253640000000000088e-01 -1.020067000000000057e+00 -4.449739999999999807e-01 1.862176000000000053e+00 -4.226500000000000257e-01