1.001693999999999996e+01 2.378859999999999975e+00 2.137910000000000199e+00 1.030479000000000056e+01 2.319599999999999884e+00 8.192439999999999500e+00 7.477000000000000313e-02 8.149250000000000327e+00 3.146360000000000046e+00 3.937499999999999889e-01 7.862409999999999677e+00 7.433830000000000382e+00 5.002500000000000391e+00 2.725179999999999936e+00 2.204470000000000152e+00 5.025079999999999991e+00 2.535670000000000091e+00 7.643049999999999677e+00 5.415829999999999700e+00 7.486729999999999663e+00 2.405749999999999833e+00 5.177679999999999616e+00 7.722760000000000069e+00 7.900610000000000355e+00 2.322750000000000092e+00 4.774140000000000050e+00 2.219640000000000057e+00 2.959379999999999900e+00 5.164390000000000036e+00 7.241939999999999600e+00 2.714449999999999807e+00 9.200000000000000278e-04 2.752260000000000151e+00 2.756120000000000125e+00 1.045786000000000016e+01 7.722690000000000055e+00 7.850609999999999644e+00 5.211479999999999890e+00 2.635440000000000005e+00 8.027309999999999945e+00 5.479370000000000296e+00 7.605850000000000222e+00 7.625390000000000335e+00 1.050126000000000026e+01 2.198669999999999902e+00 7.850690000000000168e+00 1.071326000000000001e+01 7.958520000000000039e+00 2.450979999999999936e+00 2.522689999999999877e+00 5.199139999999999873e+00 2.845429999999999904e+00 2.265620000000000189e+00 1.038236000000000026e+01 2.681430000000000202e+00 7.878879999999999661e+00 4.863570000000000171e+00 2.596519999999999939e+00 7.943060000000000009e+00 1.000394000000000005e+01 7.498910000000000409e+00 2.436020000000000074e+00 5.021080000000000432e+00 7.472050000000000303e+00 2.296609999999999818e+00 1.022645999999999944e+01 8.021869999999999834e+00 8.154389999999999361e+00 5.306869999999999976e+00 8.132880000000000109e+00 8.216160000000000352e+00 1.035435000000000016e+01 1.311999999999999972e-02 5.367399999999999949e+00 5.202659999999999840e+00 9.982319999999999638e+00 5.229800000000000004e+00 1.026416000000000039e+01 1.032545999999999964e+01 2.906099999999999794e-01 5.353679999999999772e+00 1.831399999999999972e-01 1.058426000000000045e+01 1.529899999999999871e-01 5.489729999999999777e+00 5.375339999999999563e+00 4.760239999999999583e+00 5.020319999999999894e+00 5.371330000000000382e+00 1.038175999999999988e+01 5.773399999999999643e+00 1.075605999999999973e+01 5.052410000000000068e+00 5.271899999999999586e+00 1.037316000000000038e+01 1.022885999999999918e+01 4.141180000000000305e+00 4.525479999999999947e+00 3.416669999999999874e+00 4.027389999999999581e+00 4.087880000000000180e+00 8.984339999999999549e+00 4.337920000000000442e+00 9.435259999999999536e+00 3.360850000000000115e+00 3.973019999999999996e+00 9.372099999999999653e+00 8.951950000000000074e+00 9.510220000000000340e+00 4.631370000000000431e+00 3.564430000000000209e+00 7.934190000000000076e+00 3.169919999999999849e+00 2.043719999999999981e+00 9.240180000000000504e+00 9.572990000000000776e+00 4.106060000000000265e+00 9.248870000000000147e+00 8.982279999999999376e+00 1.455929999999999946e+00 3.706929999999999836e+00 9.452800000000000091e-01 1.156209999999999960e+00 3.543670000000000098e+00 1.165550000000000086e+00 6.397129999999999761e+00 3.300650000000000084e+00 5.741170000000000329e+00 1.071190000000000087e+00 4.203479999999999883e+00 6.566449999999999676e+00 6.554020000000000401e+00 9.028499999999999304e+00 7.608000000000000318e-01 1.042519999999999891e+00 9.014760000000000773e+00 1.214469999999999938e+00 6.448520000000000252e+00 8.499029999999999418e+00 6.142070000000000363e+00 8.563300000000000356e-01 9.202400000000000801e+00 6.772809999999999775e+00 6.246970000000000134e+00 4.022090000000000387e+00 1.573390000000000066e+00 3.736559999999999881e+00 4.070310000000000095e+00 1.113949999999999996e+00 8.818740000000000023e+00 3.861959999999999837e+00 6.642689999999999984e+00 4.163230000000000430e+00 4.052130000000000010e+00 6.720209999999999795e+00 9.275190000000000268e+00 9.605100000000000193e+00 1.673789999999999889e+00 4.017990000000000173e+00 9.061619999999999564e+00 1.272210000000000063e+00 9.219699999999999562e+00 8.926259999999999195e+00 6.890869999999999607e+00 3.726290000000000102e+00 9.217829999999999302e+00 7.188170000000000393e+00 8.916109999999999758e+00 3.426750000000000185e+00 3.245839999999999836e+00 1.478849999999999998e+00 3.917240000000000055e+00 3.802659999999999929e+00 6.348989999999999689e+00 4.012400000000000411e+00 8.237019999999999342e+00 8.962599999999999456e-01 3.565209999999999990e+00 9.285769999999999413e+00 6.073949999999999960e+00 1.875369999999999981e+00 7.198200000000000154e-01 4.516110000000000291e+00 1.184879999999999933e+00 5.952899999999999858e-01 9.148519999999999541e+00 1.225009999999999932e+00 6.489419999999999966e+00 3.388659999999999783e+00 1.031449999999999978e+00 6.196419999999999817e+00 8.450010000000000687e+00 6.803440000000000154e+00 1.046110000000000095e+00 3.424380000000000202e+00 6.399359999999999715e+00 1.080570000000000030e+00 8.644660000000000011e+00 6.495930000000000426e+00 7.048540000000000028e+00 3.980129999999999946e+00 6.530619999999999870e+00 6.597800000000000331e+00 8.815549999999999997e+00 6.237200000000000522e-01 3.751850000000000129e+00 1.095499999999999918e+00 1.656209999999999960e+00 4.440330000000000332e+00 6.026530000000000165e+00 1.654209999999999958e+00 9.548709999999999809e+00 7.141499999999999515e-01 1.008189999999999920e+00 9.633960000000000079e+00 6.468759999999999621e+00 5.752909999999999968e+00 3.332399999999999807e+00 5.926000000000000156e-01 6.715770000000000017e+00 4.310979999999999812e+00 6.684040000000000425e+00 6.612899999999999778e+00 8.810600000000000875e+00 1.473500000000000032e+00 7.331389999999999851e+00 9.580899999999999750e+00 6.372770000000000046e+00 1.416900000000000048e+00 3.053209999999999980e+00 3.521279999999999966e+00 1.164490000000000025e+00 3.662259999999999849e+00 8.872619999999999507e+00 1.656590000000000007e+00 9.222699999999999676e+00 3.607889999999999819e+00 1.538729999999999931e+00 8.964320000000000732e+00 8.602650000000000574e+00 7.117029999999999745e+00 4.073010000000000019e+00 4.208380000000000010e+00 8.448169999999999291e+00 3.911519999999999886e+00 9.133290000000000575e+00 6.878829999999999778e+00 9.600270000000000081e+00 3.787090000000000067e+00 6.609140000000000015e+00 9.310570000000000235e+00 9.023220000000000240e+00 1.380309999999999926e+00 8.989000000000000323e-01 1.610870000000000024e+00 1.037290000000000045e+00 1.486839999999999939e+00 6.780039999999999623e+00 5.937299999999999800e-01 6.620599999999999596e+00 9.305999999999999828e-01 1.529260000000000064e+00 6.858410000000000117e+00 6.023990000000000400e+00 6.490409999999999791e+00 9.016699999999999715e-01 9.603099999999999969e-01 6.258479999999999599e+00 1.385639999999999983e+00 6.325599999999999667e+00 5.793440000000000367e+00 5.606620000000000381e+00 1.659980000000000011e+00 6.817309999999999981e+00 6.885830000000000339e+00 6.521379999999999733e+00
1.027718999999999916e+01 2.431379999999999875e+00 2.199139999999999873e+00 2.133299999999999919e-01 2.473790000000000155e+00 7.768869999999999720e+00 1.016239000000000026e+01 8.215339999999999421e+00 2.334569999999999812e+00 2.177000000000000116e-02 7.919089999999999741e+00 7.816650000000000098e+00 5.324150000000000382e+00 3.050269999999999815e+00 2.770399999999999974e+00 5.321900000000000297e+00 2.945349999999999913e+00 7.749530000000000030e+00 5.273889999999999745e+00 8.056440000000000268e+00 2.627299999999999969e+00 4.988760000000000083e+00 8.418730000000000047e+00 7.767500000000000071e+00 2.563540000000000152e+00 4.900269999999999904e+00 2.488809999999999967e+00 2.641750000000000043e+00 4.889319999999999666e+00 7.646139999999999937e+00 2.507080000000000197e+00 1.027966999999999942e+01 2.494209999999999816e+00 2.482720000000000038e+00 1.056657000000000046e+01 7.450070000000000192e+00 8.129070000000000462e+00 5.219640000000000057e+00 2.669929999999999914e+00 8.265019999999999811e+00 4.986250000000000071e+00 7.540989999999999860e+00 7.850570000000000270e+00 1.045167000000000002e+01 2.512459999999999916e+00 7.763679999999999914e+00 1.032497000000000043e+01 7.771939999999999849e+00 2.510759999999999881e+00 2.420739999999999892e+00 5.209880000000000067e+00 2.769519999999999982e+00 2.035289999999999822e+00 1.019166000000000061e+01 2.559419999999999806e+00 7.819079999999999586e+00 5.162799999999999834e+00 2.580779999999999852e+00 7.598160000000000025e+00 6.830000000000000134e-03 8.176259999999999195e+00 2.356939999999999813e+00 5.213680000000000092e+00 7.380709999999999660e+00 2.336009999999999920e+00 1.036006000000000071e+01 7.940290000000000070e+00 7.663640000000000008e+00 5.138700000000000045e+00 7.743719999999999715e+00 7.739410000000000345e+00 1.030086000000000013e+01 5.094499999999999584e-01 5.272289999999999921e+00 5.130300000000000082e+00 1.038601000000000063e+01 5.578350000000000364e+00 3.957999999999999713e-02 1.308400000000000118e-01 1.072256999999999927e+01 4.889190000000000147e+00 1.015213999999999928e+01 -3.724999999999999839e-02 1.029345999999999961e+01 5.086210000000000342e+00 5.603460000000000107e+00 5.431630000000000180e+00 5.476709999999999745e+00 5.451559999999999739e+00 1.019135999999999953e+01 5.077469999999999928e+00 1.344899999999999984e-01 5.048449999999999882e+00 5.329489999999999839e+00 1.064156999999999975e+01 1.004048000000000052e+01 4.317859999999999587e+00 4.481580000000000119e+00 3.940749999999999975e+00 4.348980000000000068e+00 4.384470000000000312e+00 8.880739999999999412e+00 3.659330000000000194e+00 1.005627999999999922e+01 3.982499999999999929e+00 3.872790000000000177e+00 9.958140000000000214e+00 8.837590000000000501e+00 9.425169999999999604e+00 4.043000000000000149e+00 4.098449999999999704e+00 9.523170000000000357e+00 4.216980000000000395e+00 9.025249999999999773e+00 9.369930000000000092e+00 9.630240000000000578e+00 3.728310000000000013e+00 9.309390000000000498e+00 9.506809999999999761e+00 8.980869999999999465e+00 3.376269999999999882e+00 4.768600000000000061e-01 8.207600000000000451e-01 3.722430000000000128e+00 1.113580000000000014e+00 6.573879999999999946e+00 3.490130000000000177e+00 6.010799999999999699e+00 1.090819999999999901e+00 3.518390000000000128e+00 6.503499999999999837e+00 6.579950000000000188e+00 8.825480000000000658e+00 3.629610000000000003e+00 1.181240000000000068e+00 8.971280000000000143e+00 6.797999999999999599e-01 6.173820000000000086e+00 8.744500000000000384e+00 6.385290000000000354e+00 1.109520000000000062e+00 9.295220000000000482e+00 3.413629999999999942e+00 6.576870000000000438e+00 4.461879999999999846e+00 1.688460000000000072e+00 4.030319999999999681e+00 4.469870000000000232e+00 1.598470000000000057e+00 9.220639999999999503e+00 4.091510000000000424e+00 7.052570000000000228e+00 4.144619999999999749e+00 4.256999999999999673e+00 7.158220000000000027e+00 9.198299999999999699e+00 9.451090000000000657e+00 1.619310000000000027e+00 3.818830000000000169e+00 9.428100000000000591e+00 1.935499999999999998e+00 9.252100000000000435e+00 9.443020000000000636e+00 7.120669999999999611e+00 3.751199999999999868e+00 9.094670000000000698e+00 6.092939999999999579e+00 5.912609999999999921e+00 3.528239999999999821e+00 3.419540000000000024e+00 1.535169999999999924e+00 3.952749999999999986e+00 3.770280000000000076e+00 6.504520000000000302e+00 3.614339999999999886e+00 8.726940000000000808e+00 1.595399999999999929e+00 3.555050000000000043e+00 8.937739999999999796e+00 6.597419999999999618e+00 1.752059999999999951e+00 8.944400000000000128e-01 3.912269999999999914e+00 1.472630000000000106e+00 5.105100000000000193e-01 9.063670000000000115e+00 1.987449999999999939e+00 6.138219999999999565e+00 3.900840000000000085e+00 1.515649999999999942e+00 6.092419999999999725e+00 8.923000000000000043e+00 7.046560000000000379e+00 6.162100000000000355e-01 3.821569999999999911e+00 6.832340000000000302e+00 1.080940000000000012e+00 8.758749999999999147e+00 6.992729999999999890e+00 6.333350000000000257e+00 3.762379999999999836e+00 7.047979999999999912e+00 6.348150000000000404e+00 9.128180000000000405e+00 8.248499999999999721e-01 4.189210000000000100e+00 1.527420000000000000e+00 1.560359999999999969e+00 4.062789999999999679e+00 6.286260000000000403e+00 9.676299999999999901e-01 9.366600000000000037e+00 1.062850000000000072e+00 8.873760000000000758e+00 8.761760000000000659e+00 6.561840000000000117e+00 6.520400000000000418e+00 4.313570000000000348e+00 1.237270000000000092e+00 6.548339999999999606e+00 4.397170000000000023e+00 6.697119999999999962e+00 6.545309999999999739e+00 9.661949999999999150e+00 1.317739999999999911e+00 6.186060000000000336e+00 9.745300000000000296e+00 6.642540000000000333e+00 1.726690000000000058e+00 3.618790000000000173e+00 3.760780000000000012e+00 1.626900000000000013e+00 3.275100000000000122e+00 9.033350000000000435e+00 1.360800000000000010e+00 8.923149999999999693e+00 3.710519999999999818e+00 1.362610000000000099e+00 8.635070000000000690e+00 8.908569999999999212e+00 6.946060000000000123e+00 3.546670000000000211e+00 4.038009999999999877e+00 6.633280000000000065e+00 3.729519999999999946e+00 9.108969999999999345e+00 6.483799999999999564e+00 9.212839999999999918e+00 4.013550000000000395e+00 6.651609999999999800e+00 9.192360000000000753e+00 9.012010000000000076e+00 1.023220000000000018e+00 1.167550000000000088e+00 1.081650000000000000e+00 1.230820000000000025e+00 1.215219999999999967e+00 6.446900000000000297e+00 8.464199999999999502e-01 6.869439999999999991e+00 1.146449999999999969e+00 1.164469999999999894e+00 6.937039999999999651e+00 6.362589999999999968e+00 6.213499999999999801e+00 1.554729999999999945e+00 1.205889999999999906e+00 6.228629999999999889e+00 1.843069999999999986e+00 6.088409999999999656e+00 6.145760000000000112e+00 7.041559999999999597e+00 1.050540000000000029e+00 6.096330000000000027e+00 7.041479999999999961e+00 6.434789999999999566e+00
1.004979999999999940e+01 2.806779999999999831e+00 2.472160000000000135e+00 2.060999999999999985e-02 2.565859999999999808e+00 7.952359999999999651e+00 3.698199999999999821e-01 8.084580000000000766e+00 2.281070000000000153e+00 1.005100000000000021e-01 7.991450000000000387e+00 7.827169999999999739e+00 5.302439999999999820e+00 2.293660000000000032e+00 2.606529999999999792e+00 5.445750000000000313e+00 2.554100000000000037e+00 7.816069999999999851e+00 5.195229999999999571e+00 8.221830000000000638e+00 2.995470000000000077e+00 5.336599999999999788e+00 7.943240000000000300e+00 7.367280000000000051e+00 2.645399999999999974e+00 5.260169999999999568e+00 2.530269999999999797e+00 2.353310000000000013e+00 5.035859999999999559e+00 7.352529999999999788e+00 2.747479999999999922e+00 1.074907999999999930e+01 2.455200000000000049e+00 3.103870000000000129e+00 1.009418999999999933e+01 7.604190000000000005e+00 7.833440000000000403e+00 5.490319999999999645e+00 2.379119999999999902e+00 8.058059999999999334e+00 4.824270000000000280e+00 8.048140000000000072e+00 7.694490000000000052e+00 4.261999999999999816e-02 2.623930000000000096e+00 8.038669999999999760e+00 1.020673000000000030e+01 7.543660000000000032e+00 2.360059999999999825e+00 2.164330000000000087e+00 4.853469999999999729e+00 2.844539999999999846e+00 2.633579999999999810e+00 1.005371000000000059e+01 2.185789999999999900e+00 8.143259999999999721e+00 5.466009999999999813e+00 2.872819999999999929e+00 7.830429999999999779e+00 1.041806000000000054e+01 7.448769999999999669e+00 3.100150000000000183e+00 5.200709999999999944e+00 7.713969999999999771e+00 1.987889999999999935e+00 1.039126000000000083e+01 8.076489999999999725e+00 7.830700000000000216e+00 5.049229999999999663e+00 7.842489999999999739e+00 8.625429999999999708e+00 1.008619000000000021e+01 1.019016000000000055e+01 5.527560000000000251e+00 5.044059999999999988e+00 7.908999999999999364e-02 5.008539999999999992e+00 1.035825999999999958e+01 1.373300000000000076e-01 1.080847999999999942e+01 4.647170000000000023e+00 1.037303999999999959e+01 1.066287999999999947e+01 1.033126000000000033e+01 4.668160000000000309e+00 4.911299999999999777e+00 5.024149999999999672e+00 5.581850000000000200e+00 5.073870000000000324e+00 1.041816000000000031e+01 4.998739999999999739e+00 1.086777999999999977e+01 5.203159999999999563e+00 4.941150000000000375e+00 1.026368000000000080e+01 1.033915999999999968e+01 4.150660000000000238e+00 6.350060000000000038e+00 3.708779999999999966e+00 4.024000000000000021e+00 7.809099999999999930e-01 8.951489999999999725e+00 6.331310000000000215e+00 1.308289999999999953e+00 6.483869999999999578e+00 3.668779999999999930e+00 9.539130000000000109e+00 3.762719999999999843e+00 9.417199999999999349e+00 4.951150000000000162e+00 1.407669999999999977e+00 9.356930000000000192e+00 3.292450000000000099e+00 9.502259999999999707e+00 9.090170000000000528e+00 8.705260000000000886e+00 6.493789999999999729e+00 1.559290000000000065e+00 9.694240000000000634e+00 9.673949999999999605e+00 2.425229999999999997e+00 5.762599999999999945e-01 7.490900000000000336e-01 2.999969999999999803e+00 4.776799999999999935e-01 5.812160000000000437e+00 3.848059999999999814e+00 6.203260000000000218e+00 8.590799999999999548e-01 3.190269999999999939e+00 6.394140000000000157e+00 6.257749999999999702e+00 9.565830000000000055e+00 1.555209999999999981e+00 1.041390000000000038e+00 8.477130000000000720e+00 3.138300000000000090e+00 7.021340000000000359e+00 9.225400000000000489e+00 8.022610000000000241e+00 1.012820000000000054e+00 8.616649999999999920e+00 5.976440000000000197e+00 6.155800000000000161e+00 3.852599999999999802e+00 3.678479999999999972e+00 3.507969999999999811e+00 9.311500000000000554e+00 9.006890000000000285e+00 8.851530000000000342e+00 3.984879999999999978e+00 9.010400000000000631e+00 6.017619999999999969e+00 4.270850000000000257e+00 3.796949999999999825e+00 8.909319999999999240e+00 8.910330000000000084e+00 9.937599999999999767e+00 3.750129999999999963e+00 8.897740000000000649e+00 1.521599999999999897e-01 6.169229999999999769e+00 9.360010000000000829e+00 6.880630000000000024e+00 3.763510000000000133e+00 9.594490000000000407e+00 6.302069999999999617e+00 8.799210000000000420e+00 4.234270000000000422e+00 3.336969999999999992e+00 7.613999999999999657e-01 2.954050000000000065e+00 3.689410000000000078e+00 6.157600000000000406e+00 4.096119999999999983e+00 1.025500000000000078e+00 3.409240000000000048e+00 5.872869999999999813e+00 7.095700000000000340e-01 1.369320000000000093e+00 1.280599999999999961e+00 8.917709999999999582e+00 3.830049999999999955e+00 1.415419999999999900e+00 1.605660000000000087e+00 9.175850000000000506e+00 8.945909999999999584e+00 4.077759999999999607e+00 4.307629999999999626e+00 2.224730000000000096e+00 7.273150000000000226e+00 8.593750000000000000e+00 9.496660000000000323e+00 1.550389999999999935e+00 3.832460000000000200e+00 7.174999999999999822e+00 6.174719999999999764e+00 5.393499999999999961e-01 7.129129999999999967e+00 7.265310000000000379e+00 3.416180000000000216e+00 6.017369999999999663e+00 6.144820000000000171e+00 8.717639999999999390e+00 1.417780000000000040e+00 3.778509999999999813e+00 3.576330000000000009e+00 2.817200000000000260e-01 4.635989999999999611e+00 6.972240000000000215e+00 3.458849999999999980e+00 8.972030000000000172e+00 1.442020000000000080e+00 1.093709999999999960e+00 9.583449999999999136e+00 6.502580000000000027e+00 6.275509999999999700e+00 8.579570000000000363e+00 1.052780000000000049e+00 6.703249999999999709e+00 3.319679999999999964e+00 9.143660000000000565e+00 6.933799999999999963e-01 9.798939999999999984e+00 1.418109999999999982e+00 9.193740000000000023e+00 1.039199999999999902e+00 8.748630000000000351e+00 1.434609999999999941e+00 9.889099999999999557e-01 3.406730000000000036e+00 1.349590000000000067e+00 4.251100000000000101e+00 9.016769999999999285e+00 1.750890000000000057e+00 6.800609999999999822e+00 3.022229999999999972e+00 4.456590000000000273e+00 8.627610000000000667e+00 9.314420000000000144e+00 6.717349999999999710e+00 1.520780000000000021e+00 4.010100000000000442e+00 6.360730000000000217e+00 4.323719999999999786e+00 4.089439999999999742e+00 6.175440000000000040e+00 9.789749999999999730e+00 3.895070000000000032e+00 7.091750000000000220e+00 8.431589999999999918e+00 7.838680000000000092e+00 1.032880000000000020e+00 3.696689999999999809e+00 1.228059999999999929e+00 8.235999999999999988e-01 1.666349999999999998e+00 6.205199999999999605e+00 1.073280000000000012e+00 6.970850000000000435e+00 5.828799999999999537e-01 6.299400000000000555e-01 6.900610000000000355e+00 6.173829999999999707e+00 6.802349999999999675e+00 3.557040000000000202e+00 1.527339999999999920e+00 6.116690000000000182e+00 4.229940000000000033e+00 6.624259999999999593e+00 8.271029999999999660e+00 1.067068000000000083e+01 6.118299999999999850e-01 6.198979999999999713e+00 6.805640000000000356e+00 5.757189999999999586e+00
1.045847999999999978e+01 2.816199999999999815e+00 2.780180000000000096e+00 4.426700000000000079e-01 2.049990000000000201e+00 8.425449999999999662e+00 1.028448000000000029e+01 7.632719999999999949e+00 2.700969999999999871e+00 1.054097999999999935e+01 8.466659999999999187e+00 8.036310000000000286e+00 5.290589999999999904e+00 2.743180000000000174e+00 2.748559999999999892e+00 5.326260000000000439e+00 2.678510000000000169e+00 8.222479999999999123e+00 5.385270000000000223e+00 8.122149999999999537e+00 2.279349999999999987e+00 5.474910000000000387e+00 7.614969999999999573e+00 8.129060000000000841e+00 2.920510000000000161e+00 5.188990000000000435e+00 2.762309999999999821e+00 2.391659999999999897e+00 5.294500000000000206e+00 8.057700000000000529e+00 3.506609999999999783e+00 1.059107999999999983e+01 1.822789999999999910e+00 2.334480000000000111e+00 1.043497999999999948e+01 7.288260000000000183e+00 7.838470000000000049e+00 5.065419999999999590e+00 2.183469999999999800e+00 8.770960000000000534e+00 5.415390000000000370e+00 8.233389999999999986e+00 7.264520000000000088e+00 1.090077999999999925e+01 2.810459999999999958e+00 7.861869999999999692e+00 1.318300000000000027e-01 7.221799999999999997e+00 2.069539999999999935e+00 2.614780000000000104e+00 5.775409999999999933e+00 2.931470000000000020e+00 2.699969999999999981e+00 4.231199999999999961e-01 2.062640000000000029e+00 8.257229999999999848e+00 4.834670000000000023e+00 2.877159999999999940e+00 7.837460000000000093e+00 1.017080999999999946e+01 7.937269999999999825e+00 2.966559999999999864e+00 5.061149999999999594e+00 8.181400000000000006e+00 2.468820000000000014e+00 1.028767000000000031e+01 7.084929999999999950e+00 8.159710000000000463e+00 5.139739999999999753e+00 7.826800000000000423e+00 7.896419999999999995e+00 1.050976999999999961e+01 9.901719999999999189e+00 5.994839999999999947e+00 5.247359999999999580e+00 3.973700000000000010e-01 5.235619999999999941e+00 1.385099999999999942e-01 1.020349000000000039e+01 1.314800000000000135e-01 4.369379999999999598e+00 5.638900000000000023e-01 1.063607999999999976e+01 1.677200000000000080e-01 5.020880000000000010e+00 5.310760000000000147e+00 5.434389999999999610e+00 5.698660000000000281e+00 5.036929999999999907e+00 1.035276999999999958e+01 5.082609999999999850e+00 2.013199999999999990e-01 5.748750000000000249e+00 5.217190000000000438e+00 1.077187999999999946e+01 9.979749999999999233e+00 3.897870000000000168e+00 7.171000000000000263e+00 1.377690000000000081e+00 3.930919999999999970e+00 4.479440000000000310e+00 7.111080000000000290e+00 3.242259999999999920e+00 9.334519999999999484e+00 3.322410000000000085e+00 3.381330000000000169e+00 9.504049999999999443e+00 9.139039999999999608e+00 8.679349999999999454e+00 4.675010000000000332e+00 3.996910000000000185e+00 1.451219999999999954e+00 3.744359999999999911e+00 9.694290000000000518e+00 9.066649999999999210e+00 1.003525999999999918e+01 6.335930000000000284e+00 9.286799999999999500e+00 1.114999999999999991e+00 8.556419999999999249e+00 1.125429999999999930e+00 2.066679999999999851e+00 1.486429999999999918e+00 3.877299999999999969e+00 7.470499999999999918e-01 8.017170000000000130e+00 6.594030000000000058e+00 6.509929999999999772e+00 1.230580000000000007e+00 3.459000000000000075e+00 7.233979999999999855e+00 7.506240000000000023e+00 1.061557999999999957e+01 9.479039999999999466e+00 1.342289999999999983e+00 9.163050000000000139e+00 1.522510000000000030e+00 5.518069999999999808e+00 9.469519999999999271e+00 4.026349999999999874e+00 1.473589999999999955e+00 8.640000000000000568e+00 4.831669999999999909e+00 6.274530000000000385e+00 4.091140000000000221e+00 2.130749999999999922e+00 6.195940000000000225e+00 6.650260000000000282e+00 1.043520000000000003e+00 8.591960000000000264e+00 1.634749999999999925e+00 7.030359999999999943e+00 2.157550000000000079e+00 7.423910000000000231e+00 9.009169999999999234e+00 1.485489999999999977e+00 5.632500000000000284e-01 9.432460000000000733e+00 3.946720000000000006e+00 1.047888000000000019e+01 6.534019999999999939e+00 9.229530000000000456e+00 8.866550000000000153e+00 7.527180000000000426e+00 4.230760000000000076e+00 2.226729999999999876e+00 6.048820000000000086e+00 1.006844000000000072e+01 6.731530000000000236e+00 3.950029999999999930e+00 9.189349999999999241e+00 3.878499999999999837e+00 4.084579999999999878e+00 4.254789999999999850e+00 4.938469999999999693e+00 9.591440000000000410e+00 1.151650000000000063e+00 3.631800000000000139e+00 1.002787999999999968e+01 5.764409999999999812e+00 1.054859999999999909e+00 1.762890000000000068e+00 4.430790000000000006e+00 4.154160000000000075e+00 3.550030000000000019e+00 9.643539999999999779e+00 3.673820000000000086e+00 6.780409999999999826e+00 4.648950000000000138e+00 8.924070000000000391e+00 9.006240000000000023e+00 9.496750000000000469e+00 8.674830000000000041e+00 9.875289999999999679e+00 3.664509999999999934e+00 9.080289999999999750e+00 4.139509999999999579e+00 9.521190000000000708e+00 6.146270000000000344e+00 6.748840000000000394e+00 6.484189999999999898e+00 7.205079999999999707e+00 6.605319999999999858e+00 9.023799999999999599e+00 6.476639999999999731e+00 3.530599999999999850e-01 6.626300000000000523e-01 1.211600000000000010e+00 3.684590000000000032e+00 7.118070000000000341e+00 2.240479999999999805e+00 9.609329999999999927e+00 7.099299999999999500e-01 1.096060000000000034e+00 9.066229999999999123e+00 6.656690000000000218e+00 3.828780000000000072e+00 9.423700000000000410e-01 2.997199999999999864e-01 6.720060000000000144e+00 3.739949999999999886e+00 3.331269999999999953e+00 9.490199999999999747e+00 6.579850000000000421e+00 1.100819999999999910e+00 6.116369999999999862e+00 9.145739999999999981e+00 9.359669999999999490e+00 8.462049999999999628e+00 1.428889999999999993e+00 3.082879999999999843e+00 4.822689999999999699e+00 4.456929999999999836e+00 1.414719999999999978e+00 3.436420000000000030e+00 1.837530000000000108e+00 2.271780000000000133e+00 1.604409999999999892e+00 1.207540000000000058e+00 9.854820000000000135e+00 7.153889999999999638e+00 3.782099999999999795e+00 9.653899999999999704e-01 6.487980000000000302e+00 3.780949999999999811e+00 5.918040000000000411e+00 6.264129999999999754e+00 9.660069999999999268e+00 6.470710000000000406e+00 1.167180000000000106e+00 9.346590000000000842e+00 9.035740000000000549e+00 5.687699999999999978e-01 4.034279999999999866e+00 4.587600000000000122e+00 8.603300000000000392e-01 8.677700000000000413e-01 6.793610000000000149e+00 1.846100000000000074e+00 4.406520000000000437e+00 1.514690000000000092e+00 1.130419999999999980e+00 6.714669999999999916e+00 6.427500000000000213e+00 5.778389999999999915e+00 9.810750000000000526e+00 3.429840000000000000e+00 6.167130000000000223e+00 1.157559999999999922e+00 4.360669999999999824e+00 6.103950000000000209e+00 6.863310000000000244e+00 4.120459999999999567e+00 9.177839999999999776e+00 7.182760000000000034e+00 6.875700000000000145e+00