5.064337370817878714e+00 2.618889422047768534e+00 2.604771587341921713e+00 5.079499791648740548e+00 2.604139770281055810e+00 7.763631573663251295e+00 5.042578356084830737e+00 7.661131796730098920e+00 2.585440231058507177e+00 5.088872759636326570e+00 7.703624052272070699e+00 7.792457716271973034e+00 2.192026775015091730e-02 2.637380360714863148e+00 2.585655113366302160e+00 1.012229521698874990e+01 2.591409230068462577e+00 7.792337874639587270e+00 -2.489690568791617345e-04 7.680092534502984236e+00 2.564123755571475982e+00 1.006516781515092163e+01 7.757453137162531043e+00 7.897674042860798771e+00 2.557779069949647877e+00 1.032194470735605524e-01 2.585894027599224376e+00 2.512102136326773927e+00 6.105051772456306092e-02 7.792296524019605819e+00 2.536011118021056721e+00 5.145562899335227591e+00 2.604952668755892375e+00 2.521543488243223496e+00 5.160453203808404332e+00 7.763602666926082918e+00 7.600515152956380582e+00 8.431747449848076004e-02 2.564440504003670629e+00 7.678193645269470125e+00 7.333907958658935841e-03 7.897610456931738909e+00 7.578207080080958669e+00 5.127200804863113248e+00 2.585669145389999812e+00 7.621070281434883853e+00 5.173211888442435402e+00 7.792346629540285896e+00 2.515179564813656121e+00 2.596369279045677825e+00 5.219185045337214390e+00 2.556203015562260816e+00 2.637248271896626584e+00 1.037374272650949614e+01 2.530455987384967909e+00 7.681124046944251660e+00 5.194241434007699887e+00 2.530327932999155927e+00 7.671790555028244363e+00 1.040072170466375212e+01 7.599882818692443642e+00 2.615051432911856821e+00 5.194339264581109283e+00 7.590821764745306233e+00 2.614564913327963591e+00 1.040076954131583697e+01 7.621207512202173184e+00 7.705888577007304896e+00 5.180995309214388556e+00 7.569697743986842475e+00 7.653915955856811060e+00 2.378823997340746496e-02 5.070490338856051160e+00 8.378424961628801182e-02 5.194272796338642806e+00 5.071455733386255105e+00 9.378112788771676700e-02 1.040070249145968972e+01 5.085708174227651313e+00 5.168580403095837106e+00 5.219259185557633351e+00 5.045689128774847099e+00 5.128251924682462715e+00 1.037357146848441758e+01 1.012188854363474633e+01 5.928543323032334916e-02 5.180689182892782796e+00 3.109331220136093976e-02 1.103012152046322636e-01 2.392600595022293525e-02 8.934270961124901687e-04 5.150096806878505795e+00 5.194204963867699476e+00 1.110199797261364127e-02 5.150736821826554568e+00 1.040082465840671233e+01 3.800717726514960759e+00 3.882679551132620421e+00 3.606932100562961985e+00 3.801096454186878582e+00 3.882876242450386872e+00 8.813802088394218970e+00 3.797639273264587612e+00 8.953818603210159210e+00 3.599899396978490707e+00 3.797508494444714167e+00 8.953975594776192537e+00 8.823569400496186432e+00 8.871847708637904617e+00 3.883007607367841896e+00 3.599937224377642409e+00 8.872087126603954488e+00 3.882584724615932625e+00 8.823617233647853553e+00 8.868719839679977568e+00 8.954027178351527283e+00 3.611934525584448608e+00 3.864895209788260733e+00 1.326033242299320181e+00 1.549722254784031916e+00 3.727062573433837844e+00 1.362113895955022302e+00 6.784675180511957393e+00 3.735953158402660623e+00 6.437869846010729091e+00 1.549642000801152220e+00 3.874524842339355235e+00 6.402234154333307004e+00 6.784759049854556245e+00 8.929484898589066688e+00 1.330450158820632556e+00 1.580957450333162706e+00 8.798554176726083753e+00 1.359282616950083789e+00 6.796950382971267857e+00 8.813585862611697408e+00 6.433391181947811788e+00 1.580897074229479005e+00 8.945164406778614463e+00 6.405422587819972868e+00 6.797064107152929857e+00 3.787383867213858224e+00 1.343880568904839867e+00 4.164073968613934973e+00 3.798073134422958130e+00 1.343200992102386859e+00 9.379413686584557652e+00 3.814143420260208472e+00 6.421499928669537560e+00 4.164050230182495760e+00 3.804112019496939556e+00 6.422793332892442031e+00 9.379450484525804654e+00 8.859077040562670646e+00 1.337389683098597182e+00 4.187899268370329331e+00 8.833199647098142648e+00 1.267817711093786270e+00 9.403191970790668819e+00 8.884881939562303543e+00 6.428748721588882553e+00 4.187925170333023139e+00 8.910897722118848563e+00 6.497384342378141220e+00 9.403282498715887172e+00 3.800543555045221122e+00 3.881926181450838786e+00 1.002462124656458897e+00 3.800741756024112572e+00 3.882212322675135940e+00 6.191962115112145781e+00 3.797244657074245744e+00 8.952934677215438342e+00 9.783194310318289455e-01 3.797454232895010495e+00 8.953272193667409340e+00 6.216539419755156892e+00 8.871673214128126261e+00 3.881763755654865200e+00 9.783472622774322947e-01 8.871762677856116497e+00 3.882431231146632467e+00 6.216557245141111743e+00 8.868363649801427329e+00 8.952871624614308743e+00 9.320645661415783989e-01 8.868527187464460226e+00 8.953543139391182848e+00 6.312884546890176196e+00 1.256500455833009067e+00 1.336947648214152462e+00 3.617676463121887398e+00 1.247872707647282642e+00 1.327981701124437697e+00 8.839246966251577575e+00 1.261046900890259392e+00 6.421018574959161285e+00 3.585433177565091167e+00 1.271009357164063491e+00 6.411158828775310070e+00 8.803523174793021155e+00 6.340547176378282579e+00 1.344779372402519435e+00 3.585491006638011235e+00 6.330903090969748348e+00 1.354222984042075417e+00 8.803581020428099535e+00 6.345015484872734035e+00 6.428782085399928015e+00 3.617647725285890292e+00 6.353971804423719227e+00 6.437322095622227458e+00 8.839157233164383953e+00 1.244507699777702259e+00 3.944925526415205219e+00 1.549713369443439293e+00 1.280784110686412403e+00 3.806775165973735220e+00 6.784756227340734469e+00 1.245672562800258509e+00 9.009497090288784094e+00 1.580850729596125825e+00 1.274476095437705236e+00 8.878243665366341020e+00 6.796963606754147236e+00 6.356500575531140562e+00 3.819257618062436688e+00 1.549720873688003042e+00 6.320783322886468270e+00 3.957522878385622445e+00 6.784708005004686626e+00 6.348801054925657716e+00 8.896776182817610845e+00 1.580988122512058336e+00 6.320505609173639350e+00 9.028113424632179473e+00 6.797045236871738894e+00 1.261988534398310158e+00 3.867825034334062995e+00 4.164085043142841336e+00 1.261384020626926228e+00 3.878301631218619594e+00 9.379414769610844971e+00 1.252130738346589389e+00 8.939622656928415623e+00 4.187872514704793048e+00 1.182808675178546931e+00 8.913335966205908178e+00 9.403135239395563616e+00 6.339548658773999534e+00 3.897835467175581048e+00 4.164059147486367074e+00 6.340921238609134036e+00 3.887382734735257639e+00 9.379459406796206267e+00 6.343421166915646836e+00 8.968747745330933441e+00 4.187966251744136947e+00 6.412271534503365622e+00 8.994347878137372021e+00 9.403353568251256789e+00 1.320234589546066539e+00 1.400365980409520761e+00 1.014772854622063347e+00 1.222286814015700607e+00 1.301969444752671290e+00 6.225008427505442477e+00 1.194470403135795333e+00 6.486272752187455026e+00 9.824632399551679329e-01 1.398947437693433882e+00 6.282467772105290393e+00 6.160403141502135860e+00 6.406295487505048847e+00 1.277808377094477033e+00 9.825010120603466790e-01 6.202664307121048104e+00 1.481865145335102829e+00 6.160591087591151371e+00 6.280563134641956147e+00 6.363746976332364191e+00 1.014731395639794975e+00 6.379288601533160907e+00 6.462407090628476958e+00 6.224955801501234731e+00
5.063877440411569175e+00 2.618639251277022684e+00 2.604241607524553803e+00 5.079059965016821110e+00 2.603549595043481268e+00 7.762701602844995108e+00 5.042738430372340375e+00 7.660921854052319624e+00 2.585550232397253900e+00 5.088792593002969156e+00 7.704104021195882446e+00 7.792317705047167919e+00 2.204040940118036709e-02 2.636940394078851391e+00 2.585395122322447836e+00 1.012142554603748401e+01 2.590378915635852319e+00 7.791637928494175469e+00 -4.491777315635257263e-04 7.680702464730765122e+00 2.564053744116558509e+00 1.006505783662978537e+01 7.757393101021047954e+00 7.897714047693066064e+00 2.558589339697749043e+00 1.024597336772808676e-01 2.586324025844366936e+00 2.512042379065996034e+00 6.031048955340647527e-02 7.792016546563943713e+00 2.536331484962886407e+00 5.144452998814403877e+00 2.604632690855939625e+00 2.522863669746725268e+00 5.159923653065169979e+00 7.763672644123443156e+00 7.600965297325827486e+00 8.384761235697929527e-02 2.563920504374209486e+00 7.678783364982327164e+00 8.194118799921584068e-03 7.898000415863990042e+00 7.578806825091134236e+00 5.128101057384808037e+00 2.587419102909470858e+00 7.621020264995648219e+00 5.173171841937699966e+00 7.791296632095877861e+00 2.515679580543857430e+00 2.596309443958724650e+00 5.219025032737956593e+00 2.556142979635738666e+00 2.637408269578518372e+00 1.037438272371989356e+01 2.530375963385793181e+00 7.681194019552259000e+00 5.194231434323470786e+00 2.531087550528977381e+00 7.672890802901561891e+00 1.040038165198306075e+01 7.599402498147961538e+00 2.615901238124753725e+00 5.193199254372961704e+00 7.590431289063908515e+00 2.615914763085467332e+00 1.040012951446139944e+01 7.622027538483662212e+00 7.705828860764172283e+00 5.181205287470342036e+00 7.569417962727459148e+00 7.653315876224346503e+00 2.432826486320308762e-02 5.070960321482484545e+00 8.380439844670960203e-02 5.193902782345009683e+00 5.071845869919352268e+00 9.335125104566274756e-02 1.040038249241873913e+01 5.083788357061140850e+00 5.168049755670950596e+00 5.219369255342930281e+00 5.045398854711636183e+00 5.129011810046491426e+00 1.037299145537959788e+01 1.012106876473167461e+01 5.869517626082373929e-02 5.181429222932266043e+00 3.180301676677357164e-02 1.111614517818774600e-01 2.378596145371583009e-02 1.333844522639033876e-03 5.148896966732816161e+00 5.194584985071320382e+00 1.151206378725195580e-02 5.150626988910738113e+00 1.040182464978581045e+01 3.799567638090297628e+00 3.883199247892589856e+00 3.610002118786545644e+00 3.797537755548762828e+00 3.878975016450413982e+00 8.813092299904454308e+00 3.797478510145012809e+00 8.956308628258165427e+00 3.602719331459944385e+00 3.799708318331910917e+00 8.954476333696185009e+00 8.823339323553996749e+00 8.870588049597754932e+00 3.882237259328539469e+00 3.602737282055783474e+00 8.871308846081886301e+00 3.877404425431128843e+00 8.822367401745200510e+00 8.866920306815842423e+00 8.952866641453658403e+00 3.614524609671806665e+00 3.864115710127485670e+00 1.324472950226280643e+00 1.548732320985406030e+00 3.726302969092092798e+00 1.360953641045751894e+00 6.784765234881731999e+00 3.736004123010784994e+00 6.434969845380487108e+00 1.549012081002035357e+00 3.872544992364004734e+00 6.401713457575653798e+00 6.783839121073794054e+00 8.930694938503268787e+00 1.330160511379559374e+00 1.578917423920118468e+00 8.799483339443300522e+00 1.361672904892112790e+00 6.795990289122141093e+00 8.808246317087427002e+00 6.431939336076479385e+00 1.579597267643815695e+00 8.946304620541015495e+00 6.404812981160413976e+00 6.797314091745760400e+00 3.786943871618861923e+00 1.343760384066488012e+00 4.162803984566391335e+00 3.797092599554994230e+00 1.344600600274157509e+00 9.377293675184064980e+00 3.817263551192703996e+00 6.421211018216038902e+00 4.165200149185706024e+00 3.808521776377395529e+00 6.423214727991735096e+00 9.375930346683961858e+00 8.860596032267963551e+00 1.340390206111945037e+00 4.188189140489762430e+00 8.833539379005104664e+00 1.268507792466756490e+00 9.401991941653491835e+00 8.886101517484140899e+00 6.429809072952847870e+00 4.185725105634540810e+00 8.910378542585711159e+00 6.494794110021075539e+00 9.401282586480615322e+00 3.802792665393476490e+00 3.884456911853064298e+00 1.001331989145724632e+00 3.802302108243504009e+00 3.880722700973436634e+00 6.186622112477571100e+00 3.794285715260814040e+00 8.949743651938005584e+00 9.775196054111351396e-01 3.797714213479109979e+00 8.953422312727889576e+00 6.217639408102173526e+00 8.868504088677498842e+00 3.879372745339481288e+00 9.806074201369481269e-01 8.878251655268739384e+00 3.885503447712742364e+00 6.217186973264539063e+00 8.868034379821255087e+00 8.950671497722543890e+00 9.315246374978712884e-01 8.866457771920009279e+00 8.951852449656206190e+00 6.313294653613392704e+00 1.254221271261676263e+00 1.334716934661073662e+00 3.619766591044744963e+00 1.247302598454388622e+00 1.328531583985508080e+00 8.841946967056626860e+00 1.260877140724357970e+00 6.420408550056295738e+00 3.586593199592449377e+00 1.271759734817287102e+00 6.410019074516110749e+00 8.803223185449585486e+00 6.340928695181135666e+00 1.340229478894614523e+00 3.584691123852976613e+00 6.332663081020969642e+00 1.354333607407217865e+00 8.804540967036347254e+00 6.345855668959966778e+00 6.428392421286329927e+00 3.619467712257858238e+00 6.353561776903901226e+00 6.437291919535678808e+00 8.837837245726264612e+00 1.241418364739461211e+00 3.943134536976820925e+00 1.551753508128208781e+00 1.282834296432761922e+00 3.806245866799772948e+00 6.784976183677104089e+00 1.243752027250948355e+00 9.011286509463511507e+00 1.583330734076153323e+00 1.273934768634762182e+00 8.882223503568145162e+00 6.797723510155819326e+00 6.353180934908007060e+00 3.818346543321379460e+00 1.551500994175343262e+00 6.320792933705611460e+00 3.958432802035081188e+00 6.781877979106516463e+00 6.346440504236589675e+00 8.898415387871729365e+00 1.581158143789819004e+00 6.317735657731202714e+00 9.028142543795656394e+00 6.799095315182647425e+00 1.260768291929647233e+00 3.868254525482534678e+00 4.160695065905299472e+00 1.262054788195332788e+00 3.876291943668415563e+00 9.382444807039613366e+00 1.249280593186934185e+00 8.940001674910586615e+00 4.187292585452139448e+00 1.182289360644847243e+00 8.911135731010533689e+00 9.401035316182651869e+00 6.340218940779676515e+00 3.896635571493289429e+00 4.159699162121198057e+00 6.340321612626692804e+00 3.886242519395575190e+00 9.379029456031192424e+00 6.341331215059119231e+00 8.968466991014619083e+00 4.186326319351851843e+00 6.412871350176058804e+00 8.995058136864740206e+00 9.405323531118671809e+00 1.322564015700058437e+00 1.401926725303223931e+00 1.013192744129129519e+00 1.220776593291881262e+00 1.302618932519226780e+00 6.224988452359823121e+00 1.195130275817688936e+00 6.486592957212437227e+00 9.818032120878263935e-01 1.400317455857374105e+00 6.282458250944438660e+00 6.160923102633346637e+00 6.409455734502109259e+00 1.277109457691714356e+00 9.828509414618198381e-01 6.202334039250368747e+00 1.482745063317608913e+00 6.161651072250314165e+00 6.279892766212540778e+00 6.364836750098251450e+00 1.014761384104727160e+00 6.381198446067664953e+00 6.462707684839263500e+00 6.223075738477167995e+00
5.063417506616957553e+00 2.618399080505699583e+00 2.603711627425705721e+00 5.078610141488113960e+00 2.602949416136612459e+00 7.761761632593992211e+00 5.042898504659848236e+00 7.660711911374541216e+00 2.585660233736000180e+00 5.088712426369612629e+00 7.704583990119694192e+00 7.792177693822362805e+00 2.217055076596175303e-02 2.636500430549559404e+00 2.585125130992836251e+00 1.012055587169791160e+01 2.589358601202663479e+00 7.790937982067283940e+00 -6.593864056697786719e-04 7.681312391570251030e+00 2.563983732947406224e+00 1.006494785472034437e+01 7.757343064878987171e+00 7.897754052243851852e+00 2.559389609446427460e+00 1.017000168927050252e-01 2.586754024375275129e+00 2.511972618417491532e+00 5.958045799337573223e-02 7.791736569112567068e+00 2.536641851905294676e+00 5.143343094905284296e+00 2.604312713241752952e+00 2.524183851535898082e+00 5.159394102603513055e+00 7.763752621320794134e+00 7.601415438021299487e+00 8.338774993332305485e-02 2.563390504463276098e+00 7.679373084695185092e+00 9.054329641184232294e-03 7.898390374796240287e+00 7.579396570387555876e+00 5.129001306799783499e+00 2.589179060714699609e+00 7.620970248556409921e+00 5.173131795432965419e+00 7.790246634651468938e+00 2.516169595988965835e+00 2.596249605201899513e+00 5.218855020424471469e+00 2.556072947098099402e+00 2.637558263872691544e+00 1.037502272149753679e+01 2.530295942774922757e+00 7.681253992160844923e+00 5.194221434920721414e+00 2.531837171733351877e+00 7.673981047668738675e+00 1.040005159986960415e+01 7.598922180706113139e+00 2.616741043056651783e+00 5.192049244446301337e+00 7.590030816485721310e+00 2.617254609173676805e+00 1.039947948817421519e+01 7.622837564765729823e+00 7.705769141132742028e+00 5.181415266012061593e+00 7.569138181468076709e+00 7.652715796591881059e+00 2.486828975299870334e-02 5.071430300720612294e+00 8.383454727655320626e-02 5.193532768069895944e+00 5.072236006738118697e+00 9.292137448518554554e-02 1.040007249337777928e+01 5.081868543568605290e+00 5.167509108528220096e+00 5.219489325409698566e+00 5.045108580934093645e+00 5.129771695692095790e+00 1.037242144227477070e+01 1.012024898611427837e+01 5.810491957290094683e-02 5.182179262971740918e+00 3.251272472049043100e-02 1.120116883597006702e-01 2.364591723868873785e-02 1.764258561439475959e-03 5.147707123198252077e+00 5.194965006279226749e+00 1.192212988756021982e-02 5.150517156276498199e+00 1.040283464116489931e+01 3.798407552768846340e+00 3.883708940983263247e+00 3.613062137577382149e+00 3.793989056910068491e+00 3.875073793838736957e+00 8.812382511128923568e+00 3.797327747024860756e+00 8.958798656694463958e+00 3.605539265655633319e+00 3.801898141934014763e+00 8.954977068946302410e+00 8.823099246897580628e+00 8.869328390557605246e+00 3.881466911289237043e+00 3.605537339733924096e+00 8.870520562457761216e+00 3.872234123139027595e+00 8.821127569846824557e+00 8.865120773666037124e+00 8.951706104274217424e+00 3.617104693759173095e+00 3.863346213568767062e+00 1.322902661260538348e+00 1.547732387182503055e+00 3.725543364464677154e+00 1.359793385854904946e+00 6.784845289251514089e+00 3.736055087333239655e+00 6.432069844468670361e+00 1.548372161202926645e+00 3.870565139000350374e+00 6.401202760817422011e+00 6.782919192011551246e+00 8.931894978703716959e+00 1.329870860831766866e+00 1.576887397792831713e+00 8.800412502160513739e+00 1.364063192834141791e+00 6.795030195273014328e+00 8.802916771276908747e+00 6.430487493311867198e+00 1.578287460772394679e+00 8.947454834302838833e+00 6.404203377889151838e+00 6.797564076052826643e+00 3.786513876023288372e+00 1.343640202616432688e+00 4.161534000233082509e+00 3.796112064972701372e+00 1.346000208727504921e+00 9.375183663783564825e+00 3.820373681840107949e+00 6.420922104092666061e+00 4.166340068474689851e+00 3.812911530156372741e+00 6.423646116595436162e+00 9.372420209132164004e+00 8.862105023688160443e+00 1.343390725455420043e+00 4.188469012894969090e+00 8.833879114014699496e+00 1.269187873558727420e+00 9.400781912797805617e+00 8.887321092017671731e+00 6.430879424316234605e+00 4.183525040654578753e+00 8.909859363052575532e+00 6.492203877664011635e+00 9.399282674245345248e+00 3.805041779415706316e+00 3.886977642537444488e+00 1.000211853916462612e+00 3.803862460748566043e+00 3.879233079553314756e+00 6.181292109842988047e+00 3.791336769772831072e+00 8.946562629766713570e+00 9.767097792232041220e-01 3.797974197451514211e+00 8.953562431788947507e+00 6.218739396730669888e+00 8.865344963226299058e+00 3.876981738412393241e+00 9.828675777106985478e-01 8.884730632681936413e+00 3.888575660890555952e+00 6.217816701673732460e+00 8.867715109840503374e+00 8.948471374219076679e+00 9.309847085683987666e-01 8.864398356660649014e+00 8.950161763591102826e+00 6.313714760050835650e+00 1.251962089791821553e+00 1.332476227603588415e+00 3.621846718677559807e+00 1.246732485587520145e+00 1.329091466564423563e+00 8.844636967580205678e+00 1.260707383661090697e+00 6.419788524872430457e+00 3.587743221901295687e+00 1.272510115858814794e+00 6.408869320257487345e+00 8.802923196387627769e+00 6.341310210881353271e+00 1.335689585667708457e+00 3.583901240786454334e+00 6.334413074175403224e+00 1.354434227103065380e+00 8.805490914211848263e+00 6.346695852761529366e+00 6.428002756891153524e+00 3.621277699229835001e+00 6.353141752772967443e+00 6.437251740061411986e+00 8.836517258855391077e+00 1.238339026312337943e+00 3.941353550926154803e+00 1.553793646245732907e+00 1.284894482178533082e+00 3.805716571014107430e+00 6.785196139727708520e+00 1.241821491130876254e+00 9.013075924686788198e+00 1.585790738841962089e+00 1.273393445220123876e+00 8.886193341770526999e+00 6.798483413838972922e+00 6.349861290896569699e+00 3.817445468579744539e+00 1.553281114381203531e+00 6.320812548198150971e+00 3.959332729354990921e+00 6.779057953204054243e+00 6.344079957221496535e+00 8.900044593208004784e+00 1.581338165349051472e+00 6.314965702900460442e+00 9.028181662958553844e+00 6.801145393212077117e+00 1.259548052849288613e+00 3.868674016631584056e+00 4.157305088949236449e+00 1.262725556049409725e+00 3.874282256399788960e+00 9.385484844468372501e+00 1.246440451986344788e+00 8.940370696844787801e+00 4.186732656195185420e+00 1.181760046111725027e+00 8.908935492426859781e+00 9.398935393255506199e+00 6.340879219683295709e+00 3.895445672703700790e+00 4.155349176760307017e+00 6.339721983255948601e+00 3.885112304055314603e+00 9.378599504984700630e+00 6.339241263488260891e+00 8.968186236979882153e+00 4.184696386959559256e+00 6.413481165848175181e+00 8.995768398980400704e+00 9.407293493700320752e+00 1.324883445814271976e+00 1.403477467372362231e+00 1.011632634203425196e+00 1.219266375670696956e+00 1.303258420004783424e+00 6.224958477495692755e+00 1.195790145111277791e+00 6.486923162236839957e+00 9.811431839390049037e-01 1.401697477409040493e+00 6.282438733172460488e+00 6.161443063760272842e+00 6.412605978111443505e+00 1.276420534900077675e+00 9.832008708675783470e-01 6.202013771093443317e+00 1.483624984406834546e+00 6.162701056623718365e+00 6.279232394679913121e+00 6.365936527533431644e+00 1.014801372002406055e+00 6.383098290602747582e+00 6.463008275661754176e+00 6.221195675738866449e+00
5.062967576210070320e+00 2.618148913123249599e+00 2.603181647322572623e+00 5.078160314856772217e+00 2.602359237510742052e+00 7.760831662061501213e+00 5.043058578947356096e+00 7.660501968696762809e+00 2.585770235074746015e+00 5.088632263124561739e+00 7.705053959044083634e+00 7.792037682879037419e+00 2.230069241641309194e-02 2.636060467301843513e+00 2.584865139663216738e+00 1.011968620103231586e+01 2.588328287051628873e+00 7.790248035921864656e+00 -8.595916920499298850e-04 7.681912321798610499e+00 2.563913721773968479e+00 1.006484787619863042e+01 7.757283032125801725e+00 7.897794056790353068e+00 2.560199878908858917e+00 1.009403032148485091e-01 2.587174022620426062e+00 2.511912857768409335e+00 5.885042982164115366e-02 7.791456591375424345e+00 2.536952218847702500e+00 5.142233190996164716e+00 2.603992735627566280e+00 2.525504029651095550e+00 5.158874551859700119e+00 7.763822598236674644e+00 7.601875578716192017e+00 8.292789089796295809e-02 2.562860504266577077e+00 7.679962804408041244e+00 9.914540482446880520e-03 7.898780333728490533e+00 7.579996318786034415e+00 5.129891559322055095e+00 2.590929018515650384e+00 7.620920232402843553e+00 5.173091749209806522e+00 7.789206637207052530e+00 2.516669611719166255e+00 2.596189770114946782e+00 5.218695007825213672e+00 2.556002910886484791e+00 2.637718257884710038e+00 1.037565271899370600e+01 2.530215918775748030e+00 7.681323964768853152e+00 5.194211435236491425e+00 2.532586792652056218e+00 7.675071292154338032e+00 1.039971154775615680e+01 7.598451863549357199e+00 2.617580851658423580e+00 5.190909234233869185e+00 7.589640340804323593e+00 2.618604458931180989e+00 1.039883946131977588e+01 7.623647591047795657e+00 7.705709421501314438e+00 5.181625244553780263e+00 7.568868403596419547e+00 7.652105720348290063e+00 2.540831463850899696e-02 5.071890283061953220e+00 8.385469243710180764e-02 5.193152754362036383e+00 5.072636146944611291e+00 9.248150131358250092e-02 1.039976249433253663e+01 5.079948729790398687e+00 5.166968461103911281e+00 5.219599395476475223e+00 5.044818306870881841e+00 5.130531581056124502e+00 1.037184142916995100e+01 1.011942920721120664e+01 5.751466260340133696e-02 5.182919303011223278e+00 3.321242900081123467e-02 1.128719212670728639e-01 2.349587302795501376e-02 2.204672885331751889e-03 5.146517283333560400e+00 5.195355027201359555e+00 1.233219937617269224e-02 5.150397323642835978e+00 1.040384463282546790e+01 3.797257467161148092e+00 3.884218637180655964e+00 3.616112156082461837e+00 3.790440354597400585e+00 3.871182570944904366e+00 8.811662722071922360e+00 3.797176990395646268e+00 8.961268684850345778e+00 3.608349200414290081e+00 3.804087966107458918e+00 8.955477804759571114e+00 8.822879170241147762e+00 8.868068727843482435e+00 3.880706562967780382e+00 3.608327397130592917e+00 8.869722275445910853e+00 3.867073817458052343e+00 8.819887737952733175e+00 8.863331237127347606e+00 8.950555570482491063e+00 3.619684777279293719e+00 3.862586713906836167e+00 1.321342375964090987e+00 1.546742452812346791e+00 3.724793756448379956e+00 1.358643134051775725e+00 6.784925343054051261e+00 3.736106045164755418e+00 6.429189843837272100e+00 1.547742240840849881e+00 3.868595288738752469e+00 6.400682067166489020e+00 6.781989262945030461e+00 8.933105022577564114e+00 1.329571213954425568e+00 1.574867371661251347e+00 8.801321671655490064e+00 1.366433474000734005e+00 6.794070102558379176e+00 8.797607218974293986e+00 6.429055657604267893e+00 1.576987652766475234e+00 8.948605047778992017e+00 6.403593774336312272e+00 6.797804060359900369e+00 3.786073880428292515e+00 1.343520017778080833e+00 4.160264016185538871e+00 3.795141533778133791e+00 1.347389820569726560e+00 9.373073652378778320e+00 3.823473805425810834e+00 6.420653186298265425e+00 4.167469987486487781e+00 3.817291283935928536e+00 6.424077501810840474e+00 9.368910071866128675e+00 8.863614018496667413e+00 1.346381244799472743e+00 4.188748885581654591e+00 8.834218849309962707e+00 1.269867954932275111e+00 9.399581883942106586e+00 8.888540673327810282e+00 6.431929775680776729e+00 4.181324976237576152e+00 8.909340183805108282e+00 6.489613645588522495e+00 9.397292762010065914e+00 3.807260897113644571e+00 3.889488363339090871e+00 9.991017198259684040e-01 3.805422814110637653e+00 3.877743458977922941e+00 6.175992107208380766e+00 3.788397817793331068e+00 8.943401611264141238e+00 9.759099521865396420e-01 3.798224177750522124e+00 8.953712547179556225e+00 6.219829385363458307e+00 8.862195827323933628e+00 3.874620734590290994e+00 9.851177341542516341e-01 8.891179620547450924e+00 3.891617864186791564e+00 6.218456431784652239e+00 8.867395839859753437e+00 8.946271250715609469e+00 9.304447796389262448e-01 8.862338938012985778e+00 8.948481077525419991e+00 6.314134866206798868e+00 1.249702904647992607e+00 1.330245520263948267e+00 3.623916846028902849e+00 1.246172379496682137e+00 1.329631352532791411e+00 8.847326968380981427e+00 1.260547619534967190e+00 6.419188502794129114e+00 3.588883243361424835e+00 1.273260496900342709e+00 6.407719565998864830e+00 8.802623207325668275e+00 6.341681723193846487e+00 1.331159689051928385e+00 3.583111357724217072e+00 6.336153064227780796e+00 1.354544843691615430e+00 8.806450861391628138e+00 6.347536032889118829e+00 6.427623092213823774e+00 3.623077685920338631e+00 6.352741725252569971e+00 6.437221567363158314e+00 8.835197271131505659e+00 1.235269680536688286e+00 3.939592567699475190e+00 1.555813783514547577e+00 1.286944671598856615e+00 3.805177272122300280e+00 6.785426096345550384e+00 1.239900958398530095e+00 9.014855343298940227e+00 1.588250743603485615e+00 1.272842125194367346e+00 8.890153176585192440e+00 6.799243318089370547e+00 6.346551643210578852e+00 3.816554396944251693e+00 1.555051234019826589e+00 6.320832162405021215e+00 3.960232656393324113e+00 6.776227927301598619e+00 6.341719409635062199e+00 8.901673797981123570e+00 1.581498186908300463e+00 6.312215744680258922e+00 9.028230788897465331e+00 6.803195470388494925e+00 1.258337814054021564e+00 3.869093511450506728e+00 4.153925111707400752e+00 1.263386316841786039e+00 3.872292565460133229e+00 9.388514881619943964e+00 1.243600313888389763e+00 8.940729718497987477e+00 4.186162727219717716e+00 1.181240728761060899e+00 8.906745257794062454e+00 9.396855469761099755e+00 6.341539498872585057e+00 3.894255774195688691e+00 4.151009191399407605e+00 6.339112350211808078e+00 3.883992085044603471e+00 9.378159553942500892e+00 6.337151312203072706e+00 8.967905483226724428e+00 4.183076454567257407e+00 6.414090981234619626e+00 8.996478660814485551e+00 9.409253456281977179e+00 1.327192879317368623e+00 1.405018206053782359e+00 1.010072524844966013e+00 1.217756155232547988e+00 1.303907908052915454e+00 6.224948502350065027e+00 1.196440014691115383e+00 6.487253364154523361e+00 9.804931560759405640e-01 1.403067492470346345e+00 6.282439212292606712e+00 6.161973024609994631e+00 6.415746224823990040e+00 1.275721608439146060e+00 9.835408008405902569e-01 6.201683502937092918e+00 1.484504902107763646e+00 6.163751041282889531e+00 6.278552026536745601e+00 6.367026298192597800e+00 1.014841360753095501e+00 6.384998135423500365e+00 6.463308866765820504e+00 6.219325613000556530e+00