-9.604137764700000162e+02
-9.604090111199999455e+02
-9.603947032400000126e+02
-9.603710097599999926e+02
-9.603381872800000565e+02
-9.602965812099999994e+02
-9.602466194400000177e+02
-9.601888335999999526e+02
-9.601238345000000436e+02
-9.600523005999999668e+02
-9.599749835699999494e+02
-9.598926818500000309e+02
-9.598062586300000021e+02
-9.597165964299999814e+02
-9.596246205899999495e+02
-9.595312524199999871e+02
-9.594374341799999684e+02
-9.593440800600000102e+02
-9.592520950800000037e+02
-9.591623490299999730e+02
-9.590756608699999788e+02
-9.589928048699999863e+02
-9.589144883699999582e+02
-9.588413338300000532e+02
-9.587738967200000388e+02
-9.587126356200000146e+02
-9.586579140000000052e+02
-9.586100085399999671e+02
-9.585690909500000316e+02
-9.585352280900000324e+02
-9.585084000699999933e+02
-9.584884827600000108e+02
-9.584752645600000278e+02
-9.584684405599999764e+02
-9.584676395899999761e+02
-9.584724064800000178e+02
-9.584822346800000332e+02
-9.584965567299999520e+02
-9.585147677300000169e+02
-9.585362262999999530e+02
-9.585602815900000451e+02
-9.585862537599999769e+02
-9.586134799400000475e+02
-9.586413020400000278e+02
-9.586690801600000214e+02
-9.586962043099999846e+02
-9.587221028500000557e+02
-9.587462480899999946e+02
-9.587681608000000324e+02
-9.587874123200000440e+02
-9.588036376600000494e+02
-9.588165371999999707e+02
-9.588258688800000300e+02
-9.588314623999999640e+02
-9.588332029800000100e+02
-9.588310476399999516e+02
-9.588250096399999620e+02
-9.588151548800000228e+02
-9.588016173199999912e+02
-9.587845693799999935e+02
-9.587642326899999716e+02
-9.587408715599999596e+02
-9.587147860699999455e+02
-9.586863070199999584e+02
-9.586557776199999807e+02
-9.586235807599999816e+02
-9.585900892700000213e+02
-9.585556978399999934e+02
-9.585207944799999495e+02
-9.584857617999999775e+02
-9.584509810900000275e+02
-9.584168055699999513e+02
-9.583835869099999627e+02
-9.583516517599999816e+02
-9.583212896200000159e+02
-9.582927763200000300e+02
-9.582663418600000114e+02
-9.582421954100000221e+02
-9.582205085900000086e+02
-9.582014130699999441e+02
-9.581850115299999970e+02
-9.581713530800000171e+02
-9.581604689800000187e+02
-9.581523495300000377e+02
-9.581469462500000418e+02
-9.581441825099999505e+02
-9.581439470799999754e+02
-9.581461016199999676e+02
-9.581504790499999444e+02
-9.581568963099999792e+02
-9.581651456299999836e+02
-9.581749955899999804e+02
-9.581862064900000178e+02
-9.581985322799999949e+02
-9.582117212499999823e+02
-9.582255061500000011e+02
-9.582396440999999641e+02
-9.582538747800000465e+02
-9.582679570799999738e+02
-9.582816599899999801e+02
