-9.261034662299999809e+02
-9.119413233300000456e+02
-9.197041134199999988e+02
-9.234697489200000291e+02
-9.151787074100000154e+02
-9.163793691600000102e+02
-9.124643315099999654e+02
-9.129516290000000254e+02
-9.190697483000000148e+02
-9.183550009799999998e+02
-9.136006797200000165e+02
-9.216636363300000312e+02
-9.139696799900000315e+02
-9.123828888399999641e+02
-9.293730760400000008e+02
-9.282675112399999762e+02
-9.134959261799999695e+02
-9.173797937800000000e+02
-9.215803642900000341e+02
-9.133002204900000152e+02
-9.178383182699999452e+02
-9.123375862300000563e+02
-9.118997007000000394e+02
-9.194537114700000302e+02
-9.301688637800000379e+02
-9.127107653599999821e+02
-9.248038996899999802e+02
-9.158987750700000561e+02
-9.163139276900000141e+02
-9.364340225800000326e+02
-9.048535393900000372e+02
-9.154750851899999589e+02
-9.237665246000000252e+02
-9.194903961799999479e+02
-9.014511325900000429e+02
-9.296988233600000058e+02
-9.017230958699999519e+02
-9.177645400300000347e+02
-9.081344362700000374e+02
-9.248736193099999809e+02
-9.255149461500000143e+02
-9.180108621800000037e+02
-9.272095549800000072e+02
-9.152638509099999737e+02
-9.253800466899999719e+02
-9.228476797600000054e+02
-9.146004473000000417e+02
-9.159762945200000104e+02
-9.133489050199999610e+02
-9.112401110900000276e+02
