3.026530000000000165e+00 1.050852000000000075e+01 2.869289999999999896e+00 2.853759999999999852e+00 4.275999999999999940e-02 8.154669999999999419e+00 2.755300000000000082e+00 5.174690000000000012e+00 3.016989999999999839e+00 2.892659999999999787e+00 4.900619999999999976e+00 8.212880000000000180e+00 2.638000000000000067e-02 2.433380000000000098e+00 2.171949999999999825e+00 -7.270000000000000420e-03 2.964989999999999792e+00 7.800130000000000230e+00 2.530299999999999772e-01 7.820719999999999672e+00 2.364079999999999959e+00 1.313400000000000123e-01 7.743360000000000021e+00 7.816340000000000288e+00 8.033820000000000405e+00 2.769080000000000208e+00 5.349700000000000344e+00 7.480450000000000266e+00 2.799220000000000041e+00 1.088930000000000042e+01 8.079670000000000130e+00 7.992110000000000269e+00 5.750219999999999665e+00 8.108520000000000394e+00 8.011609999999999232e+00 1.058929999999999971e+01 5.392050000000000232e+00 2.374900000000000067e-01 1.083409999999999940e+01 5.413909999999999556e+00 1.046561999999999948e+01 5.938430000000000319e+00 5.326319999999999943e+00 5.327230000000000132e+00 7.520599999999999508e-01 5.207270000000000287e+00 5.408549999999999969e+00 5.822899999999999743e+00 5.176619999999999777e+00 2.407169999999999810e+00 2.780079999999999885e+00 5.180259999999999643e+00 2.897040000000000060e+00 7.700580000000000425e+00 5.381020000000000358e+00 7.917270000000000252e+00 3.103940000000000143e+00 5.247329999999999828e+00 7.667530000000000179e+00 8.695180000000000575e+00 7.879310000000000258e+00 2.208700000000000108e-01 2.904640000000000111e+00 7.944429999999999659e+00 4.325800000000000201e-01 8.554570000000000007e+00 7.882590000000000430e+00 5.000880000000000436e+00 2.425539999999999807e+00 7.868159999999999599e+00 5.449939999999999785e+00 8.109629999999999228e+00 -3.776000000000000190e-02 1.044622000000000028e+01 1.044769999999999932e+01 2.227200000000000013e-01 1.043032000000000004e+01 4.947820000000000107e+00 9.476999999999999313e-02 5.534130000000000216e+00 1.058830000000000027e+01 9.992359999999999687e+00 5.462629999999999875e+00 4.795770000000000088e+00 2.480080000000000062e+00 2.618469999999999853e+00 5.253840000000000288e+00 2.608769999999999811e+00 2.922379999999999978e+00 1.070790000000000042e+01 2.726519999999999833e+00 8.030279999999999418e+00 5.396659999999999791e+00 2.821839999999999904e+00 7.718709999999999738e+00 2.023399999999999921e-01 9.581340000000000856e+00 3.516760000000000108e+00 8.242500000000000382e-01 9.993499999999999162e+00 3.817120000000000068e+00 5.994589999999999641e+00 9.831020000000000536e+00 8.570529999999999760e+00 8.076699999999999990e-01 9.619830000000000325e+00 9.177089999999999748e+00 6.149960000000000093e+00 4.116430000000000256e+00 1.420579999999999954e+00 4.019669999999999632e+00 4.025870000000000282e+00 1.223270000000000080e+00 9.722429999999999239e+00 3.747290000000000010e+00 6.679929999999999701e+00 4.067610000000000170e+00 3.947280000000000122e+00 6.119040000000000035e+00 9.979189999999999117e+00 4.655050000000000132e+00 4.433810000000000251e+00 2.758849999999999802e+00 3.578139999999999876e+00 3.442499999999999893e+00 9.045609999999999928e+00 4.033199999999999896e+00 9.324429999999999552e+00 4.382430000000000270e+00 4.518989999999999618e+00 8.862669999999999604e+00 1.018647999999999954e+01 8.623810000000000642e+00 1.575229999999999908e+00 1.709950000000000081e+00 9.428860000000000241e+00 1.240650000000000031e+00 7.506459999999999688e+00 9.169600000000000861e+00 6.100109999999999921e+00 1.160409999999999942e+00 9.199089999999999989e+00 6.452580000000000204e+00 6.594859999999999722e+00 9.457380000000000564e+00 4.281340000000000146e+00 3.255580000000000140e+00 8.675380000000000535e+00 3.889940000000000175e+00 8.522970000000000823e+00 9.658060000000000755e+00 9.751860000000000639e+00 2.957479999999999887e+00 1.918120000000000047e+00 1.001909000000000027e+01 6.262690000000000090e+00 3.725410000000000110e+00 1.033260000000000067e+00 1.369599999999999929e+00 4.022359999999999935e+00 1.333229999999999915e+00 6.903690000000000104e+00 4.221280000000000143e+00 7.042550000000000310e+00 1.517290000000000028e+00 3.712450000000000028e+00 6.778050000000000352e+00 7.063150000000000261e+00 1.410099999999999909e+00 1.048740000000000006e+00 3.464570000000000149e+00 1.585970000000000102e+00 1.325260000000000105e+00 9.077320000000000277e+00 9.795599999999999863e-01 6.291970000000000063e+00 3.393530000000000157e+00 1.410120000000000040e+00 6.325630000000000308e+00 9.000320000000000320e+00 6.432669999999999888e+00 1.631869999999999932e+00 1.078799999999999981e+00 6.792229999999999990e+00 1.678080000000000016e+00 6.551569999999999894e+00 6.659679999999999822e+00 6.516960000000000086e+00 2.286280000000000090e+00 6.629839999999999733e+00 6.989160000000000039e+00 7.332629999999999981e+00 6.623520000000000074e+00 1.572740000000000027e+00 4.043269999999999698e+00 6.578389999999999738e+00 2.186269999999999936e+00 9.273799999999999599e+00 6.244080000000000297e+00 6.917620000000000324e+00 4.789769999999999861e+00 6.318529999999999980e+00 7.572530000000000427e+00 1.062729999999999997e+01 6.998020000000000351e+00 4.754170000000000229e+00 9.906259999999999621e+00 7.094920000000000115e+00 4.328050000000000175e+00 6.559079999999999799e+00 5.435690000000000133e+00 9.665319999999999467e+00 1.894439999999999902e+00 6.929960000000000342e+00 9.681969999999999743e+00 7.160079999999999778e+00 9.213390000000000413e+00 1.419519999999999893e+00 4.455899999999999750e+00 9.107799999999999230e+00 1.415640000000000009e+00 1.012426999999999921e+01 9.071979999999999933e+00 7.086260000000000225e+00 4.182179999999999787e+00 9.127250000000000085e+00 6.963969999999999771e+00 9.282610000000000028e+00 7.248680000000000234e+00 4.164620000000000211e+00 4.081769999999999676e+00 5.297279999999999767e+00 4.948959999999999582e+00 7.815249999999999808e+00 7.017780000000000129e+00 9.273949999999999250e+00 4.343630000000000102e+00 9.594810000000000727e+00 9.522100000000000009e+00 8.827260000000000773e+00 7.431499999999999773e-01 1.288739999999999997e+00 8.396900000000000475e-01 9.475799999999999779e-01 1.671629999999999949e+00 6.253639999999999866e+00 1.563169999999999948e+00 6.053040000000000198e+00 9.146100000000000341e-01 1.292510000000000048e+00 6.631680000000000241e+00 6.104339999999999655e+00 1.541060000000000096e+00 4.015030000000000321e+00 4.059999999999999609e+00 1.049719999999999986e+00 3.817989999999999995e+00 9.775560000000000471e+00 1.399029999999999996e+00 8.740560000000000329e+00 3.913489999999999913e+00 1.960390000000000077e+00 9.198729999999999407e+00 9.612859999999999516e+00 1.925850000000000062e+00 3.367129999999999956e+00 1.981880000000000086e+00 2.000999999999999890e+00 4.057680000000000398e+00 6.808080000000000354e+00 2.001510000000000122e+00 8.997749999999999915e+00 1.589159999999999906e+00 3.923620000000000108e+00 9.174200000000000799e+00 7.144219999999999793e+00 4.599829999999999863e+00 3.370769999999999822e+00 5.011400000000000299e-01 4.789279999999999760e+00 3.394010000000000193e+00 5.430690000000000239e+00
2.339729999999999865e+00 1.021901000000000082e+01 2.545020000000000060e+00 2.960069999999999979e+00 4.085199999999999942e-01 8.131119999999999237e+00 2.832800000000000207e+00 5.392619999999999969e+00 2.654300000000000104e+00 2.527000000000000135e+00 5.561819999999999986e+00 7.801040000000000418e+00 2.260500000000000009e-01 2.868860000000000188e+00 2.545710000000000139e+00 1.168899999999999939e-01 2.642729999999999801e+00 7.959690000000000154e+00 3.031999999999999973e-02 7.454100000000000392e+00 2.342810000000000059e+00 1.526099999999999957e-01 8.063900000000000290e+00 8.311260000000000758e+00 8.025619999999999976e+00 2.613710000000000200e+00 5.134089999999999598e+00 7.540149999999999686e+00 2.785559999999999814e+00 1.072254000000000040e+01 8.169639999999999347e+00 8.494289999999999452e+00 4.620619999999999727e+00 7.808729999999999727e+00 7.586249999999999716e+00 1.079213999999999984e+01 5.584600000000000009e+00 1.016244999999999976e+01 1.074154000000000053e+01 5.192199999999999704e+00 3.431000000000000022e-02 5.526550000000000296e+00 4.966739999999999711e+00 5.370890000000000164e+00 4.202000000000000179e-02 5.675480000000000302e+00 5.633499999999999730e+00 5.265460000000000029e+00 4.854059999999999597e+00 2.188419999999999810e+00 2.587549999999999795e+00 5.546039999999999637e+00 2.895570000000000199e+00 8.043850000000000833e+00 5.430410000000000181e+00 7.757749999999999702e+00 2.516189999999999927e+00 5.594699999999999562e+00 8.057169999999999277e+00 8.254379999999999384e+00 8.098240000000000549e+00 3.635399999999999743e-01 2.441300000000000026e+00 7.691469999999999807e+00 4.220800000000000107e-01 7.897549999999999848e+00 8.085940000000000794e+00 4.775529999999999831e+00 2.879999999999999893e+00 8.452280000000000015e+00 5.486439999999999984e+00 8.133169999999999789e+00 1.010200999999999993e+01 1.052621000000000073e+01 1.047094000000000058e+01 2.651200000000000223e-01 8.522000000000000408e-02 5.470069999999999766e+00 1.954700000000000049e-01 4.999419999999999753e+00 1.088714000000000048e+01 2.213400000000000090e-01 5.605480000000000018e+00 5.253709999999999880e+00 2.948789999999999800e+00 2.711920000000000108e+00 5.184630000000000294e+00 2.277629999999999821e+00 2.239790000000000170e+00 1.079884000000000022e+01 3.272860000000000102e+00 8.089539999999999509e+00 5.647700000000000387e+00 2.674049999999999816e+00 8.123279999999999390e+00 1.071443999999999974e+01 9.249650000000000816e+00 3.567429999999999879e+00 5.585099999999999509e-01 7.002369999999999983e+00 4.534440000000000026e+00 7.110129999999999839e+00 9.179040000000000532e+00 6.856869999999999798e+00 3.942610000000000170e+00 9.612339999999999662e+00 6.846809999999999619e+00 6.954839999999999911e+00 3.986790000000000056e+00 8.670799999999999619e-01 4.099440000000000417e+00 3.629999999999999893e+00 1.705859999999999932e+00 9.397800000000000153e+00 6.964839999999999698e+00 9.846750000000000114e+00 3.968630000000000102e+00 6.817529999999999646e+00 6.597389999999999866e+00 9.161649999999999849e+00 4.051809999999999690e+00 6.983869999999999578e+00 4.071010000000000240e+00 6.313649999999999984e+00 4.007729999999999571e+00 9.705880000000000507e+00 3.586809999999999832e+00 7.516070000000000029e+00 7.779919999999999725e+00 4.186880000000000379e+00 9.786509999999999820e+00 9.225659999999999528e+00 8.051740000000000563e+00 5.486299999999999510e-01 4.108999999999999875e-01 9.293590000000000018e+00 1.500070000000000014e+00 6.011149999999999771e+00 9.685679999999999623e+00 6.048230000000000217e+00 1.400910000000000100e+00 6.230129999999999946e+00 7.185349999999999682e+00 6.544690000000000119e+00 9.543490000000000251e+00 4.103539999999999743e+00 3.808739999999999792e+00 1.179759999999999920e+00 3.587369999999999948e+00 9.955310000000000770e+00 8.929610000000000269e+00 9.733620000000000161e+00 6.010189999999999699e+00 9.819729999999999848e+00 9.520659999999999457e+00 3.779240000000000155e+00 3.364619999999999944e+00 1.253409999999999913e+00 1.621259999999999923e+00 4.326699999999999768e+00 1.666409999999999947e+00 7.001660000000000217e+00 4.505790000000000184e+00 6.301770000000000316e+00 1.732900000000000107e+00 4.205079999999999707e+00 4.820719999999999672e+00 6.307339999999999947e+00 1.103690000000000060e+00 1.256089999999999929e+00 3.552169999999999828e+00 1.593429999999999902e+00 1.616600000000000037e+00 6.563539999999999708e+00 1.936309999999999976e+00 6.366740000000000066e+00 6.118859999999999744e+00 4.508189999999999920e+00 7.579640000000000377e+00 1.037644000000000055e+01 5.928309999999999746e+00 9.487900000000000222e-01 1.364929999999999977e+00 6.793359999999999843e+00 1.967070000000000096e+00 6.547290000000000276e+00 4.311799999999999855e+00 3.917670000000000208e+00 4.060139999999999638e+00 6.233310000000000350e+00 1.207780000000000076e+00 9.412449999999999761e+00 6.652569999999999872e+00 6.952009999999999579e+00 4.187870000000000203e+00 9.027390000000000470e+00 8.762150000000000105e+00 1.242729999999999890e+00 7.159769999999999968e+00 5.980990000000000251e+00 1.247999999999999998e+00 9.050670000000000215e+00 3.611169999999999991e+00 8.887610000000000454e+00 6.552789999999999893e+00 8.856859999999999289e+00 1.493780000000000108e+00 5.960779999999999745e+00 9.627530000000000143e+00 7.063979999999999926e+00 9.014120000000000132e+00 1.611029999999999962e+00 3.655530000000000168e+00 9.152499999999999858e+00 1.059679999999999955e+00 9.141230000000000189e+00 1.228839999999999932e+00 5.956500000000000128e+00 3.153970000000000162e+00 9.438629999999999853e+00 6.381870000000000154e+00 9.878019999999999357e+00 6.820750000000000313e+00 3.998260000000000147e+00 4.122539999999999871e+00 7.330099999999999838e+00 3.050720000000000098e+00 1.982350000000000056e+00 6.299159999999999648e+00 1.814920000000000089e+00 4.399009999999999643e+00 6.863529999999999909e+00 9.230669999999999931e+00 9.169769999999999754e+00 1.948300000000000032e-01 1.199920000000000098e+00 1.248699999999999921e+00 9.222860000000000724e+00 4.555749999999999744e+00 6.112860000000000404e+00 1.591560000000000086e+00 6.402490000000000236e+00 8.187799999999999523e-01 1.299120000000000053e+00 6.656450000000000422e+00 8.963200000000000500e+00 1.565339999999999954e+00 4.059269999999999712e+00 4.651839999999999975e+00 1.061700000000000088e+00 1.257300000000000084e+00 9.010469999999999757e+00 1.966259999999999897e+00 8.676849999999999952e+00 4.184870000000000090e+00 1.258089999999999931e+00 9.584429999999999339e+00 9.400399999999999423e+00 1.533860000000000001e+00 3.977460000000000218e+00 1.412700000000000067e+00 3.357270000000000199e+00 4.995790000000000397e+00 9.716240000000000876e+00 1.184150000000000036e+00 9.285149999999999793e+00 1.102360000000000007e+00 1.071029999999999927e+00 9.294230000000000658e+00 6.949729999999999741e+00 3.835989999999999789e+00 3.745169999999999888e+00 1.175010000000000110e+00 1.534089999999999954e+00 4.195649999999999658e+00 7.057170000000000165e+00 3.661979999999999791e+00 8.785970000000000724e+00 1.451880000000000059e+00 3.603920000000000012e+00 9.927080000000000126e+00 6.400929999999999787e+00
2.804720000000000102e+00 1.013982999999999990e+01 2.232299999999999951e+00 2.938400000000000123e+00 2.086800000000000044e-01 8.154299999999999216e+00 2.865009999999999835e+00 5.094920000000000115e+00 2.896500000000000075e+00 2.769350000000000200e+00 5.230579999999999785e+00 8.307050000000000267e+00 5.729999999999999850e-03 2.565980000000000150e+00 2.463400000000000034e+00 4.476999999999999869e-01 2.642500000000000071e+00 7.706319999999999837e+00 3.541199999999999903e-01 7.727699999999999569e+00 2.798029999999999795e+00 1.139899999999999941e-01 7.910999999999999588e+00 7.756960000000000299e+00 7.965410000000000323e+00 2.714970000000000105e+00 4.843659999999999854e+00 7.458990000000000009e+00 2.806690000000000129e+00 1.066337000000000046e+01 7.763720000000000176e+00 7.456439999999999735e+00 5.818909999999999805e+00 7.766910000000000203e+00 7.828730000000000189e+00 1.057156999999999947e+01 5.058270000000000266e+00 1.023982999999999954e+01 1.056146999999999991e+01 5.744919999999999582e+00 1.278900000000000037e-01 5.314680000000000071e+00 5.171210000000000306e+00 5.266060000000000407e+00 1.067997000000000085e+01 5.620759999999999756e+00 4.821130000000000138e+00 5.171170000000000044e+00 5.074440000000000062e+00 2.488849999999999785e+00 2.538159999999999972e+00 5.108810000000000073e+00 2.624680000000000124e+00 8.000730000000000786e+00 5.260979999999999990e+00 7.737210000000000143e+00 2.697529999999999983e+00 5.086829999999999963e+00 7.864659999999999762e+00 7.925379999999999647e+00 7.785090000000000288e+00 2.129199999999999982e-01 2.273499999999999854e+00 7.965300000000000047e+00 3.346000000000000085e-01 8.105990000000000251e+00 7.652849999999999930e+00 5.647879999999999789e+00 2.537650000000000183e+00 7.968440000000000190e+00 4.890390000000000015e+00 7.715849999999999653e+00 2.270600000000000118e-01 1.017052999999999940e+01 1.034257000000000026e+01 9.954370000000000829e+00 1.523599999999999954e-01 5.088009999999999700e+00 9.844670000000000698e+00 5.347209999999999575e+00 1.042167000000000066e+01 7.152000000000000024e-02 4.968869999999999898e+00 4.769940000000000069e+00 2.676899999999999835e+00 2.767739999999999867e+00 5.308539999999999814e+00 2.542400000000000215e+00 2.740060000000000162e+00 1.063897000000000048e+01 3.047989999999999977e+00 7.648460000000000036e+00 5.060670000000000002e+00 2.440819999999999990e+00 7.406410000000000160e+00 1.951299999999999979e-01 8.238599999999999923e+00 4.601340000000000430e+00 4.719900000000000206e-01 9.159660000000000579e+00 3.513970000000000038e+00 6.226399999999999935e+00 8.752580000000000027e+00 9.063470000000000582e+00 4.747309999999999697e+00 6.358209999999999695e+00 8.888980000000000103e+00 6.271069999999999922e+00 3.839459999999999873e+00 1.150819999999999954e+00 3.786490000000000133e+00 4.114939999999999820e+00 1.556210000000000093e+00 9.511380000000000834e+00 4.064659999999999940e+00 6.361670000000000158e+00 1.447969999999999979e+00 3.905720000000000081e+00 6.482599999999999696e+00 9.322139999999999205e+00 4.092060000000000031e+00 4.001559999999999562e+00 4.020570000000000199e+00 3.823679999999999968e+00 3.903570000000000206e+00 9.601219999999999644e+00 3.783570000000000100e+00 9.083119999999999195e+00 3.652810000000000112e+00 3.923599999999999977e+00 9.217470000000000496e+00 9.305659999999999599e+00 8.655929999999999680e+00 1.675089999999999968e+00 1.139639999999999986e+00 9.694729999999999848e+00 9.727299999999999836e-01 6.933010000000000339e+00 9.212590000000000501e+00 6.498219999999999885e+00 1.239800000000000013e+00 9.452529999999999433e+00 6.016619999999999635e+00 6.356700000000000017e+00 9.064349999999999241e+00 3.713799999999999990e+00 3.448280000000000012e+00 9.206739999999999924e+00 3.872749999999999915e+00 8.992240000000000677e+00 8.520350000000000534e+00 8.719770000000000465e+00 7.133720000000000283e+00 8.675050000000000594e+00 9.045769999999999200e+00 1.786669999999999980e+00 3.724279999999999813e+00 9.340000000000000524e-01 9.117300000000000404e-01 4.728509999999999991e+00 1.136889999999999956e+00 6.753750000000000142e+00 4.078149999999999942e+00 8.693929999999999936e+00 1.149880000000000013e+00 3.533450000000000202e+00 6.635790000000000077e+00 6.713790000000000369e+00 1.071669999999999900e+00 1.536270000000000024e+00 4.418319999999999581e+00 1.859390000000000098e+00 8.801499999999999879e-01 9.716530000000000555e+00 4.418300000000000338e+00 6.458339999999999748e+00 4.135080000000000311e+00 1.283679999999999932e+00 6.549739999999999895e+00 9.566689999999999472e+00 6.401410000000000267e+00 1.852160000000000029e+00 1.120940000000000047e+00 7.427800000000000402e+00 8.292300000000000226e-01 6.155680000000000263e+00 6.560200000000000031e+00 6.559350000000000236e+00 1.369590000000000085e+00 6.612059999999999604e+00 6.472550000000000026e+00 7.282099999999999795e+00 5.847719999999999807e+00 2.679499999999999993e+00 4.846529999999999561e+00 6.847839999999999705e+00 1.481340000000000101e+00 9.289630000000000720e+00 7.044260000000000410e+00 7.623079999999999856e+00 3.619349999999999845e+00 6.032980000000000231e+00 6.907809999999999562e+00 9.786559999999999704e+00 5.882399999999999629e+00 4.236290000000000333e+00 1.640889999999999960e+00 6.576990000000000336e+00 3.718360000000000110e+00 6.735509999999999664e+00 6.575470000000000148e+00 9.174110000000000653e+00 8.135700000000000154e-01 3.580480000000000107e+00 9.161199999999999122e+00 6.359659999999999869e+00 8.785790000000000433e+00 1.059700000000000086e+00 3.849310000000000009e+00 9.425340000000000273e+00 1.413680000000000048e+00 9.301669999999999661e+00 9.458310000000000883e+00 6.347739999999999938e+00 3.832430000000000003e+00 9.005300000000000082e+00 6.730760000000000076e+00 9.101150000000000517e+00 7.549719999999999764e+00 5.176230000000000331e+00 4.510849999999999582e+00 6.416100000000000136e+00 4.028570000000000206e+00 9.261620000000000630e+00 6.255099999999999660e+00 6.351900000000000324e-01 3.271609999999999907e+00 6.716479999999999784e+00 8.925179999999999225e+00 8.715139999999999887e+00 1.183289999999999953e+00 9.635500000000000176e-01 1.571260000000000101e+00 2.083619999999999806e+00 1.609790000000000054e+00 7.161850000000000271e+00 1.650419999999999998e+00 6.172310000000000407e+00 1.475149999999999961e+00 1.046000000000000041e+00 8.021050000000000679e+00 5.989370000000000083e+00 1.367820000000000036e+00 3.770950000000000024e+00 3.173119999999999941e+00 1.696709999999999940e+00 3.701750000000000096e+00 8.925639999999999574e+00 1.382290000000000019e+00 8.825450000000000017e+00 8.934870000000000090e+00 1.486909999999999954e+00 9.019539999999999225e+00 9.044200000000000017e-01 8.827199999999999491e-01 3.810859999999999914e+00 7.649799999999999933e-01 1.324079999999999924e+00 4.303519999999999790e+00 6.345880000000000187e+00 9.141599999999999726e-01 9.398479999999999279e+00 3.543620000000000214e+00 8.918169999999999931e+00 9.132949999999999235e+00 9.565640000000000143e+00 3.470040000000000013e+00 3.647510000000000030e+00 1.532240000000000046e+00 3.887109999999999843e+00 3.773930000000000007e+00 6.742960000000000065e+00
2.538349999999999884e+00 1.025014999999999965e+01 2.637199999999999989e+00 3.045380000000000198e+00 1.031705000000000005e+01 8.162409999999999499e+00 2.756749999999999812e+00 5.455079999999999707e+00 2.995049999999999990e+00 2.555000000000000160e+00 5.018349999999999866e+00 8.208660000000000068e+00 3.029299999999999771e-01 2.999220000000000219e+00 2.914369999999999905e+00 1.033648999999999951e+01 2.726119999999999877e+00 8.416800000000000281e+00 1.015076000000000001e+01 7.952230000000000132e+00 2.559810000000000141e+00 1.043909000000000020e+01 8.117950000000000443e+00 8.153349999999999653e+00 7.915680000000000049e+00 2.787430000000000074e+00 5.313410000000000188e+00 7.967730000000000423e+00 2.915000000000000036e+00 2.447499999999999953e-01 7.526440000000000019e+00 7.960729999999999862e+00 5.829189999999999650e+00 7.598429999999999573e+00 8.339589999999999392e+00 1.046200000000000047e-01 5.558060000000000223e+00 1.662399999999999989e-01 1.358999999999999965e-02 5.851049999999999862e+00 1.202199999999999935e-01 5.350270000000000081e+00 5.373739999999999739e+00 5.075319999999999609e+00 1.058236999999999917e+01 5.111239999999999561e+00 5.131140000000000256e+00 5.093589999999999840e+00 5.201880000000000059e+00 2.433670000000000222e+00 2.647159999999999958e+00 6.000049999999999883e+00 3.012309999999999821e+00 7.653810000000000002e+00 5.377919999999999590e+00 7.532860000000000333e+00 2.455560000000000187e+00 5.298250000000000348e+00 8.079409999999999314e+00 8.705959999999999255e+00 8.436469999999999914e+00 1.924299999999999899e-01 3.093929999999999847e+00 8.231389999999999318e+00 9.071999999999999509e-02 8.012119999999999465e+00 7.833879999999999733e+00 5.225310000000000343e+00 2.771020000000000039e+00 8.229649999999999466e+00 5.580650000000000333e+00 8.118999999999999773e+00 5.961199999999999832e-01 1.011436999999999919e+01 1.067196999999999996e+01 4.617999999999999883e-01 1.054615000000000080e+01 5.666800000000000281e+00 1.027168999999999954e+01 5.252640000000000420e+00 2.070400000000000018e-01 3.355899999999999994e-01 5.681269999999999598e+00 5.492409999999999570e+00 3.101329999999999920e+00 1.730669999999999931e+00 5.178790000000000227e+00 2.487950000000000106e+00 2.203710000000000058e+00 1.069886999999999944e+01 2.883669999999999956e+00 8.177310000000000301e+00 5.308279999999999887e+00 2.350639999999999841e+00 7.466039999999999566e+00 5.807099999999999485e-01 9.398250000000000881e+00 6.879900000000000126e+00 8.993389999999999773e+00 9.104390000000000427e+00 4.122889999999999944e+00 4.274200000000000443e+00 9.279040000000000177e+00 9.569259999999999877e+00 1.090540000000000065e+00 8.506169999999999121e+00 8.371100000000000207e-01 5.118070000000000341e+00 4.398039999999999949e+00 7.048999999999999710e-01 3.959610000000000074e+00 4.529840000000000089e+00 4.396589999999999776e+00 7.616629999999999789e+00 6.694250000000000256e+00 6.245479999999999698e+00 4.227549999999999919e+00 4.118669999999999831e+00 9.423159999999999314e+00 9.887800000000000367e+00 3.937089999999999979e+00 3.438540000000000152e+00 4.191270000000000273e+00 6.623499999999999943e+00 4.041760000000000019e+00 9.423999999999999488e+00 4.659060000000000201e+00 8.948919999999999320e+00 4.700660000000000061e+00 4.177929999999999922e+00 1.515700000000000047e+00 9.501229999999999620e+00 9.695489999999999498e+00 4.172240000000000393e+00 1.629299999999999971e+00 9.645989999999999398e+00 1.034010000000000096e+00 7.076850000000000307e+00 6.785379999999999967e+00 6.644250000000000433e+00 1.608000000000000096e+00 8.982329999999999259e+00 8.823259999999999437e+00 7.193859999999999921e+00 9.764469999999999317e+00 7.202820000000000000e+00 5.254499999999999726e-01 9.276680000000000703e+00 4.294810000000000016e+00 9.759290000000000020e+00 9.209910000000000707e+00 1.789989999999999970e+00 9.851720000000000255e+00 9.044900000000000162e+00 9.252620000000000289e+00 9.762000000000000455e+00 4.067400000000000126e+00 6.694400000000000350e-01 1.660889999999999977e+00 4.177260000000000417e+00 7.975000000000000144e-02 6.705029999999999824e+00 4.007719999999999949e+00 6.216510000000000424e+00 1.239870000000000028e+00 3.448100000000000165e+00 6.469829999999999970e+00 4.147549999999999848e+00 1.199549999999999894e+00 1.729889999999999928e+00 4.174949999999999939e+00 1.301169999999999938e+00 1.137709999999999999e+00 9.641700000000000159e+00 1.266639999999999988e+00 7.451089999999999769e+00 3.617100000000000204e+00 1.586130000000000040e+00 5.499319999999999986e+00 9.944770000000000110e+00 6.195859999999999701e+00 1.853480000000000016e+00 6.655200000000000005e-01 6.127220000000000333e+00 2.274459999999999926e+00 5.915060000000000429e+00 6.967240000000000322e+00 1.443789999999999907e+00 2.863210000000000033e+00 6.531100000000000350e+00 1.271150000000000002e+00 8.316430000000000433e+00 8.746589999999999421e+00 7.571550000000000225e+00 3.946590000000000042e+00 6.517220000000000013e+00 6.923269999999999591e+00 1.006123000000000012e+01 6.220810000000000173e+00 3.943150000000000155e+00 3.758480000000000043e+00 6.593020000000000103e+00 7.110050000000000203e+00 7.422889999999999766e+00 6.832150000000000389e+00 9.423489999999999256e+00 9.434300000000000352e+00 6.829989999999999561e+00 9.386580000000000368e+00 4.282899999999999707e+00 9.612199999999999633e+00 1.697959999999999914e+00 1.713789999999999925e+00 4.316180000000000128e+00 3.307030000000000136e+00 6.320400000000000462e-01 5.133999999999999675e-02 9.902710000000000790e+00 3.558289999999999953e+00 9.048880000000000479e+00 6.241430000000000256e+00 6.378759999999999764e+00 6.509190000000000254e+00 4.510760000000000325e+00 6.166290000000000049e+00 6.412569999999999659e+00 4.604420000000000179e+00 1.265989999999999949e+00 6.074519999999999698e+00 9.010880000000000223e+00 1.152779999999999916e+00 6.882760000000000211e+00 9.680859999999999133e+00 6.732059999999999711e+00 1.490129999999999955e+00 7.732499999999999929e-01 1.189580000000000082e+00 1.888030000000000097e+00 1.068330000000000002e+00 6.714750000000000441e+00 1.089869999999999894e+00 6.263939999999999841e+00 1.882349999999999968e+00 1.631199999999999983e+00 6.594500000000000028e+00 6.701780000000000292e+00 1.309399999999999897e+00 4.464229999999999698e+00 4.095609999999999751e+00 8.303990000000000649e+00 3.487979999999999858e+00 7.292029999999999568e+00 2.172200000000000131e+00 1.003168999999999933e+01 4.538820000000000299e+00 1.500620000000000065e+00 8.497130000000000294e+00 9.727430000000000021e+00 1.852640000000000065e+00 3.457829999999999959e+00 1.452280000000000015e+00 4.685400000000000120e-01 3.967119999999999980e+00 7.046070000000000277e+00 1.217219999999999969e+00 8.863970000000000127e+00 1.241449999999999942e+00 1.426619999999999999e+00 9.250859999999999417e+00 7.055869999999999642e+00 4.054479999999999862e+00 6.303460000000000285e+00 9.591260000000000119e+00 1.873599999999999932e+00 3.268479999999999830e+00 8.970430000000000348e+00 3.639419999999999877e+00 8.214999999999999858e+00 2.375290000000000123e+00 3.974610000000000198e+00 8.396589999999999776e+00 7.305209999999999759e+00