-9.280986133799999607e+02
-9.186262649799999735e+02
-9.181488008999999693e+02
-9.342623384600000236e+02
-9.391366064600000527e+02
-9.236025116900000285e+02
-9.333181290799999488e+02
-9.330447157700000389e+02
-9.157285107599999492e+02
-9.258961376600000222e+02
-9.278750854200000049e+02
-9.135504480800000238e+02
-9.382967048399999612e+02
-9.235426341899999443e+02
-9.241337218500000290e+02
-9.387688074300000380e+02
-9.410697703600000068e+02
-9.320269313899999588e+02
-9.179803376400000161e+02
-9.330093693100000110e+02
-9.307799691699999585e+02
-9.334310540499999433e+02
-9.302047366000000466e+02
-9.322610256599999730e+02
-9.333523990200000071e+02
-9.240768102299999782e+02
-9.332966206900000543e+02
-9.345955775099999983e+02
-9.131071071500000471e+02
-9.294198438700000224e+02
-9.107327387999999928e+02
-9.200084832799999504e+02
-9.341037879100000509e+02
-9.381104331100000309e+02
-9.108046511000000010e+02
-9.136712318500000265e+02
-9.311852234799999906e+02
-9.395671078999999963e+02
-9.299000277100000176e+02
-9.335777905600000395e+02
-9.209151676799999677e+02
-9.169222791500000085e+02
-9.211449892800000043e+02
-9.349906046400000150e+02
-9.246141600400000016e+02
-9.124330447600000298e+02
-9.315379610300000195e+02
-9.273183362199999920e+02
-9.242190748499999700e+02
-9.338991045200000372e+02
-9.397139236599999776e+02
-9.147759494099999529e+02
-9.384038278199999468e+02
-9.351586637499999597e+02
-9.330977394000000231e+02
-9.333744417999999996e+02
-9.347469160800000054e+02
-9.400728609100000313e+02
-9.213296428400000195e+02
-9.349678566300000284e+02
-9.395009310799999867e+02
-9.305272458599999936e+02
-9.178110837899999979e+02
-9.131569975300000124e+02
-9.122834423199999492e+02
-9.348076413999999659e+02
-9.152277311300000520e+02
-9.347564598999999816e+02
-9.301587953800000150e+02
-9.181980542300000252e+02
-9.346703998799999908e+02
-9.267973077399999511e+02
-9.152078631299999643e+02
-9.311565341699999863e+02
-9.303834410700000035e+02
-9.371887375899999597e+02
-9.381429011899999750e+02
-9.298955255399999942e+02
-9.150348116899999695e+02
-9.316276256400000193e+02
-9.335372985499999459e+02
-9.114752515500000527e+02
-9.169175837799999726e+02
-9.357960626300000513e+02
-9.400073420899999519e+02
-9.297088964700000133e+02
-9.167096055600000000e+02
-9.334314973399999644e+02
-9.260169619199999715e+02
-9.249588058000000501e+02
-9.363792687100000194e+02
-9.290883234299999458e+02
-9.243309222799999816e+02
-9.248023569700000053e+02
-9.338150026499999967e+02
-9.157484413500000073e+02
-9.158749309800000447e+02
-9.278544348000000355e+02
-9.111335182999999915e+02
-9.095297289100000171e+02
