-8.840850000000000097e-01 -1.817139999999999866e-01 -2.029514999999999958e+00 -4.564077000000000162e+00 -5.060374000000000372e+00 -1.229279000000000011e+00 1.017411999999999983e+00 5.189660000000000384e-01 5.064060000000000228e-01 6.936199999999999311e-02 -2.405569999999999931e-01 -2.335269999999999957e+00 7.698709999999999720e-01 6.252280000000000060e-01 -7.090530000000000443e-01 -7.252599999999999325e-02 2.839269999999999960e+00 2.648801000000000183e+00 8.421619999999999662e-01 1.236885000000000012e+00 -8.056229999999999780e-01 2.644093999999999944e+00 -1.355958999999999914e+00 4.878970000000000251e-01 -1.268788999999999945e+00 2.372323999999999877e+00 -3.269308000000000103e+00 2.334276000000000018e+00 2.173801999999999790e+00 -6.030229999999999757e-01 -5.731260000000000243e-01 -8.823649999999999549e-01 -2.100440000000000085e-01 -2.193664000000000058e+00 5.134149999999999547e-01 1.540081000000000033e+00 -9.234269999999999978e-01 2.303999999999999937e-01 -7.070910000000000251e-01 -3.008540000000000103e-01 8.871559999999999446e-01 1.311622000000000066e+00 -6.727450000000000374e-01 -5.394849999999999923e-01 -2.269794999999999785e+00 -7.339999999999999858e-01 -1.077180000000000026e+00 1.739262000000000086e+00 -9.580060000000000242e-01 1.146681000000000061e+00 2.349729999999999874e-01 7.927720000000000322e-01 7.503619999999999735e-01 1.185486999999999957e+00 -9.288939999999999975e-01 4.104760000000000075e-01 3.470469999999999944e-01 -1.272982999999999976e+00 -2.234758999999999940e+00 1.217756000000000061e+00 -3.859540000000000193e-01 -5.200050000000000505e-01 7.488580000000000236e-01 1.173635999999999902e+00 -1.106552999999999898e+00 3.439331999999999834e+00 7.406409999999999938e-01 8.300229999999999553e-01 2.161970000000000169e+00 -1.145515000000000061e+00 4.144880999999999815e+00 -4.613362999999999658e+00 -2.958770000000000011e-01 -1.187494000000000050e+00 6.806780000000000053e-01 3.806910000000000016e-01 -3.075180000000000136e-01 1.153008000000000033e+00 -1.389999999999999905e-04 1.126169999999999893e+00 4.070643999999999707e+00 3.920480000000000076e-01 6.285260000000000291e-01 1.974661999999999917e+00 2.140617999999999910e+00 -1.917596999999999996e+00 -9.109620000000000495e-01 2.767412000000000205e+00 -8.294449999999999878e-01 2.648019999999999818e-01 -4.981755999999999851e+00 2.201147000000000187e+00 2.822445999999999788e+00 -7.712320000000000286e-01 -6.276620000000000532e-01 1.279371999999999954e+00 -1.952859999999999874e-01 3.431179999999999786e-01 -5.691169999999999840e-01 4.058050000000000268e-01 8.957079999999999487e-01 7.643860000000000099e-01 1.411046999999999940e+00 -4.193810000000000038e-01 3.248300000000000076e-01 -1.915788000000000046e+00 -3.117611999999999828e+00 -2.714852000000000043e+00 1.671140000000000125e-01 -2.222481999999999847e+00 1.604484999999999939e+00 -6.845919999999999783e-01 5.519249999999999989e-01 3.029979999999999896e-01 8.323169999999999735e-01 -7.339099999999999513e-01 3.535119999999999929e-01 2.581745000000000179e+00 4.227259999999999907e-01 7.406209999999999738e-01 1.247616000000000058e+00 -7.720289999999999653e-01 1.989146999999999998e+00 -2.590482999999999869e+00 -7.195600000000000607e-02 -1.583958999999999895e+00 2.092130000000000101e-01 2.947200000000000167e-02 -1.864429999999999976e-01 2.814277000000000140e+00 2.470483999999999902e+00 2.467708000000000013e+00 -7.387839999999999963e-01 9.666209999999999525e-01 -3.241640000000000077e-01 -2.305700000000000111e-02 3.512569999999999859e-01 -1.498453000000000035e+00 -1.605979999999999963e+00 9.270000000000000462e-03 -4.226099999999999995e-02 1.112937999999999983e+00 -4.393159999999999843e-01 2.190455000000000041e+00 -1.777895000000000003e+00 3.024200000000000152e-02 2.964849999999999985e-01 2.699844000000000133e+00 -1.811439999999999939e+00 -3.833900000000000086e-01 -7.340579999999999883e-01 1.839647999999999950e+00 -2.771163000000000043e+00 2.452185000000000059e+00 -3.100347999999999882e+00 -1.333112000000000075e+00 1.746693000000000051e+00 -5.359030000000000182e-01 -1.463711999999999902e+00 7.545599999999999530e-02 -1.754010000000000069e+00 -8.211939999999999795e-01 -5.448739999999999695e-01 -7.908960000000000434e-01 -2.059909000000000212e+00 -1.474630000000000107e+00 6.785080000000000000e-01 -9.712749999999999995e-01 3.216177000000000064e+00 2.547384000000000093e+00 -8.593300000000000383e-01 1.435133999999999910e+00 1.374826000000000104e+00 -3.712870000000000115e+00 -8.815450000000000230e-01 5.291179999999999772e-01 -1.264483999999999941e+00 -1.354978000000000016e+00 -2.242999000000000187e+00 5.407119999999999704e-01 5.223799999999999971e-02 -1.069442999999999921e+00 5.741899999999999782e-01 -3.553577999999999903e+00 4.324859999999999816e-01 -1.290964999999999918e+00 1.207349999999999923e+00 -1.342740000000000045e-01 -8.715399999999999536e-02 4.785650000000000182e-01 1.250753999999999921e+00 9.084769999999999790e-01 -3.248429999999999929e-01 -1.808858000000000077e+00 -1.447799999999999976e+00 1.428298999999999985e+00 1.676190000000000069e+00 8.331020000000000092e-01 -1.030205999999999955e+00 9.384829999999999561e-01 9.316520000000000357e-01 -5.721410000000000107e-01 -3.214980000000000060e-01 -6.253039999999999710e-01 4.965470000000000161e-01 -2.141799999999999954e-02 3.204179999999999806e-01 -1.094829999999999970e+00 -2.340189000000000075e+00 -1.471279999999999921e+00 -1.792721000000000009e+00 1.875880000000000047e-01 1.464225000000000110e+00 5.203210000000000335e-01 -5.615099999999999536e-01 -1.113461000000000034e+00 -1.249899000000000093e+00 -1.016358000000000095e+00 5.099820000000000464e-01 -3.146789999999999865e-01 -1.355220000000000036e-01 -6.342010000000000147e-01 -6.274710000000000010e-01 -2.124929999999999874e-01 -8.437710000000000488e-01 -1.223483000000000098e+00 -7.078889999999999905e-01 1.091749000000000080e+00 -3.742429999999999923e-01 3.945850000000000191e-01 4.042370000000000130e-01 -2.439030000000000087e-01 -6.643040000000000056e-01 6.283560000000000256e-01 -9.227379999999999471e-01 5.778109999999999635e-01 -7.162530000000000285e-01 1.118695999999999913e+00 -2.441590000000000149e+00 -1.046747000000000094e+00 -1.461000000000000076e-01 1.978998999999999953e+00 -1.185667000000000026e+00 1.806686999999999932e+00 1.621620999999999979e+00 2.806681000000000203e+00 1.856606999999999896e+00 -1.589790000000000036e+00 -2.024310999999999972e+00 -1.025562000000000085e+00 -3.085239000000000065e+00 3.607639999999999736e-01 1.116910000000000069e+00 2.911659999999999804e-01 -1.276323000000000096e+00 9.905239999999999601e-01 3.997970000000000135e-01 -2.909539999999999904e-01 1.007057000000000091e+00 1.254150000000000098e+00 4.986720000000000041e-01 -9.580419999999999492e-01 5.285640000000000338e-01 -4.363119999999999776e-01 1.056486000000000036e+00 1.374079000000000050e+00 1.555692999999999993e+00 3.221519999999999939e-01 2.221740000000000048e+00 5.617400000000000171e-01 1.729274999999999896e+00 2.761988999999999805e+00 1.195699000000000067e+00 -7.562320000000000153e-01 -1.374698999999999893e+00 7.064329999999999776e-01
2.091677999999999926e+00 2.282099999999999795e+00 3.428080000000000016e-01 5.033910000000000329e-01 1.329863000000000017e+00 -1.476049999999999862e-01 7.553269999999999706e-01 -1.525198000000000054e+00 -2.311456999999999873e+00 -5.302040000000000086e-01 -3.874040000000000261e-01 -1.734089999999999909e+00 -3.837438000000000127e+00 7.057959999999999789e-01 3.806220000000000159e-01 3.613932000000000144e+00 -1.904339999999999922e-01 -1.268264000000000058e+00 -9.579500000000000515e-02 1.575690999999999953e+00 -3.781041999999999792e+00 1.429994999999999905e+00 -6.763430000000000275e-01 -5.824000000000000184e-03 8.520199999999999996e-01 2.065344000000000069e+00 6.842139999999999889e-01 1.786740999999999913e+00 -1.403003000000000000e+00 -2.780575999999999937e+00 1.558478999999999948e+00 4.138158999999999921e+00 9.160469999999999446e-01 -2.497910000000000130e-01 -5.742580000000000462e-01 4.493550000000000044e-01 -3.460520000000000262e-01 -7.263400000000000412e-02 1.378705999999999987e+00 -1.204734999999999889e+00 1.917099999999999915e-01 8.430229999999999668e-01 1.444579999999999975e+00 -1.197739000000000109e+00 1.093051999999999913e+00 -2.711902999999999953e+00 -4.629570000000000074e-01 -6.574320000000000164e-01 1.392760999999999916e+00 -4.024030000000000107e-01 -2.094723000000000113e+00 2.045319999999999916e-01 -2.140603000000000034e+00 5.896059999999999635e-01 6.454630000000000090e-01 -1.769280000000000019e-01 9.535700000000000287e-01 7.416859999999999564e-01 1.139213000000000031e+00 -1.252159999999999940e+00 2.191150000000000042e-01 -9.665300000000000002e-01 1.785560999999999954e+00 -5.477919999999999456e-01 -5.350390000000000423e-01 1.009690000000000032e-01 9.518290000000000362e-01 4.004860000000000086e-01 1.949017999999999917e+00 -5.892079999999999540e-01 4.063410000000000077e-01 -1.471595999999999904e+00 -1.347517999999999994e+00 -7.580399999999999638e-02 -7.996969999999999912e-01 -1.292559000000000013e+00 -4.952630000000000088e-01 -3.569689999999999808e-01 2.440586000000000144e+00 -1.329919999999999991e-01 -1.081264999999999921e+00 -1.343199000000000032e+00 -5.406239999999999934e-01 -5.603730000000000100e-01 1.899190000000000045e-01 -8.581090000000000106e-01 -1.076057000000000041e+00 1.742952000000000057e+00 -1.450728999999999935e+00 3.415730000000000155e-01 1.919456000000000051e+00 1.238439999999999958e-01 -1.227195000000000036e+00 2.829849999999999866e-01 -5.876869999999999594e-01 5.631300000000000194e-01 2.861620000000000275e-01 -1.015870999999999968e+00 4.614530000000000021e-01 -1.415275000000000061e+00 4.689849999999999852e-01 -5.217760000000000176e-01 -1.618486000000000091e+00 7.254490000000000105e-01 -5.970500000000000113e-02 9.229800000000000504e-02 2.341910000000000103e-01 9.966200000000000059e-02 -3.355150000000000077e-01 -1.530930000000000069e-01 1.091150000000000037e-01 -1.290281999999999929e+00 3.098031000000000201e+00 7.107259999999999689e-01 -1.647521999999999931e+00 -1.060630000000000045e-01 -1.474018000000000050e+00 -2.511317000000000021e+00 -2.167768000000000139e+00 -4.484779999999999878e-01 -2.900024999999999853e+00 -4.693410000000000082e-01 3.622429999999999817e-01 -1.353779999999999983e-01 5.464740000000000153e-01 1.758405999999999914e+00 3.712599999999999789e-01 8.431549999999999878e-01 9.825059999999999905e-01 1.670026000000000010e+00 9.438360000000000083e-01 6.934439999999999493e-01 1.880651000000000073e+00 -7.436099999999999655e-02 1.964323000000000041e+00 4.775460000000000260e-01 -1.106200000000000072e+00 -3.604809999999999959e-01 1.753409999999999969e-01 -1.742221000000000020e+00 2.460112000000000076e+00 -2.118559999999999888e-01 3.743690000000000073e-01 -1.637064999999999992e+00 1.195070999999999994e+00 -3.320009999999999906e-01 2.690699999999999759e-01 -7.907070000000000487e-01 2.472910000000000108e-01 -4.420700000000000185e-01 8.434800000000000075e-01 -1.124994000000000050e+00 2.373969999999999969e-01 1.917440999999999951e+00 -1.150973999999999942e+00 -1.702950000000000019e-01 -2.198570999999999831e+00 4.281730000000000258e-01 1.689170000000000116e-01 -7.495509999999999673e-01 2.814059999999999895e-01 -4.009389999999999898e-01 -8.475890000000000368e-01 8.646810000000000329e-01 -3.440889999999999782e-01 2.400619999999999976e-01 -3.898869999999999836e-01 -1.996910000000000074e-01 -1.733508999999999967e+00 -7.272429999999999728e-01 9.993910000000000293e-01 7.244399999999999729e-01 1.680962000000000067e+00 -1.117034000000000082e+00 -1.275136999999999965e+00 -1.881458999999999993e+00 1.099247000000000085e+00 1.587312000000000056e+00 4.100090000000000123e-01 8.149049999999999905e-01 1.193513000000000046e+00 -7.251900000000000013e-02 2.134300000000000086e-01 1.122250000000000053e-01 1.886257999999999990e+00 4.672060000000000102e-01 2.067099999999999840e-02 -6.627439999999999998e-01 2.663314000000000181e+00 -8.279560000000000253e-01 5.853610000000000202e-01 -1.165046999999999944e+00 6.582759999999999723e-01 -1.093023999999999996e+00 -4.117210000000000036e-01 8.683710000000000040e-01 7.201589999999999936e-01 5.962709999999999955e-01 -5.801450000000000218e-01 3.045220000000000149e-01 9.394050000000000455e-01 -2.251140000000000085e-01 -1.654843999999999982e+00 3.237949999999999995e-01 2.030490000000000073e-01 7.435929999999999485e-01 -1.211369999999999947e-01 -5.207840000000000247e-01 -7.775809999999999667e-01 4.454509999999999859e-01 2.726709999999999967e-01 -8.529510000000000147e-01 4.491310000000000024e-01 -1.229635999999999951e+00 -1.077015999999999973e+00 -2.039476000000000067e+00 6.576089999999999991e-01 8.856330000000000036e-01 -1.431356999999999990e+00 -5.433409999999999629e-01 7.632200000000000095e-02 -6.991699999999999582e-01 -1.443843999999999905e+00 1.029886999999999997e+00 2.774750000000000272e-01 -1.776723999999999970e+00 8.091399999999999981e-02 -4.886559999999999793e-01 -5.698680000000000412e-01 7.249520000000000408e-01 -1.819136000000000086e+00 4.654289999999999816e-01 -5.514499999999999957e-01 1.534569000000000072e+00 1.233540000000000053e-01 -9.626099999999999657e-01 -4.492639999999999967e-01 2.037740000000000107e-01 9.031879999999999908e-01 2.977508999999999961e+00 1.008266000000000107e+00 9.202899999999999969e-02 9.714190000000000325e-01 -4.921249999999999791e-01 1.817689999999999861e-01 2.088188000000000155e+00 -7.395739999999999537e-01 -8.345059999999999700e-01 1.481117999999999935e+00 8.114799999999999791e-02 -2.127930000000000099e-01 8.174800000000000122e-02 8.312119999999999509e-01 3.416730000000000045e-01 3.620999999999999913e-02 4.924319999999999808e-01 1.550394000000000050e+00 -7.425260000000000193e-01 -1.074222999999999928e+00 -5.915949999999999820e-01 1.108009999999999967e-01 -6.155709999999999793e-01 2.019499999999999906e-01 2.090090000000000003e-01 1.083711000000000091e+00 7.830070000000000086e-01 9.193600000000000383e-02 7.903399999999999315e-02 -4.356000000000000150e-02 2.894390000000000018e-01 -3.401899999999999924e-01 -4.191929999999999823e-01 -1.662706999999999935e+00 1.527459999999999929e-01 5.033739999999999881e-01 -9.974349999999999605e-01
7.924909999999999455e-01 1.104986999999999941e+00 1.338469999999999938e-01 2.154180000000000206e+00 -3.513390000000000124e-01 1.060000000000000053e+00 4.019123999999999697e+00 4.486229999999999940e-01 3.844209999999999905e+00 -2.728372999999999937e+00 -3.916120000000000156e-01 1.744652000000000092e+00 -9.564110000000000111e-01 1.427710000000000090e-01 -3.651450999999999780e+00 1.902854999999999963e+00 -1.434333999999999998e+00 6.197099999999999831e-01 -6.576680000000000303e-01 -6.377540000000000431e-01 -1.336025999999999936e+00 -5.353419999999999845e-01 -4.341800000000000104e-01 -1.111801000000000039e+00 -4.637419999999999876e-01 1.325736999999999943e+00 -6.342320000000000180e-01 -4.300570000000000226e-01 1.150125000000000064e+00 -9.232289999999999663e-01 1.890719999999999901e-01 -1.327852000000000032e+00 -1.488011999999999890e+00 -1.412784000000000040e+00 1.471791999999999989e+00 -1.561387999999999998e+00 -1.297136000000000067e+00 3.483950000000000102e-01 1.184614999999999974e+00 1.336690000000000100e-01 7.513170000000000126e-01 1.180625000000000036e+00 2.098498999999999892e+00 5.229930000000000412e-01 -1.575652000000000053e+00 8.421170000000000044e-01 2.399888999999999939e+00 2.408822999999999936e+00 9.892999999999999572e-01 -8.894000000000000863e-03 1.316038999999999959e+00 -1.463702000000000059e+00 -1.467783000000000060e+00 -4.488059999999999827e-01 -2.575378999999999863e+00 1.082467999999999986e+00 -1.603140000000000009e+00 2.959494999999999987e+00 -1.556038000000000032e+00 4.646569999999999867e-01 1.214618999999999893e+00 6.292020000000000390e-01 1.114622000000000002e+00 1.268032999999999966e+00 -4.535170000000000035e-01 -2.097839000000000009e+00 2.729871000000000159e+00 -3.395058999999999827e+00 1.054008999999999974e+00 8.516629999999999479e-01 6.392299999999999649e-01 1.675376999999999894e+00 3.585269999999999846e-01 -9.088640000000000052e-01 1.760002000000000066e+00 -1.524990999999999985e+00 2.475350000000000050e-01 2.665899999999999936e-01 1.593999999999999861e-01 1.163127000000000022e+00 -7.267590000000000439e-01 4.324379000000000417e+00 -2.392209999999999892e-01 -4.343230000000000146e-01 -1.424830999999999959e+00 5.712679999999999980e-01 1.531199999999999894e+00 1.704060000000000019e-01 -1.302662999999999904e+00 -1.081093999999999999e+00 -3.063469999999999804e-01 -1.583366000000000051e+00 3.192579999999999973e+00 2.252869999999999873e-01 1.232541000000000109e+00 1.090459000000000067e+00 1.649999999999999911e+00 -2.103645000000000209e+00 1.122462000000000071e+00 6.015559999999999796e-01 -1.364392999999999967e+00 -6.979899999999999993e-01 3.517500000000000071e-01 4.492789999999999839e-01 1.787720999999999894e+00 1.302205000000000057e+00 -3.489269999999999872e-01 -8.672330000000000316e-01 -1.015719999999999956e+00 5.027840000000000087e-01 1.452112999999999987e+00 -2.353709999999999969e-01 -1.853121000000000018e+00 -5.749429999999999819e-01 -1.407493000000000105e+00 1.724526000000000003e+00 -4.381590000000000207e-01 -8.962149999999999839e-01 1.300489000000000006e+00 -9.362289999999999779e-01 -1.188450000000000062e-01 -1.104092000000000073e+00 1.686800000000000105e-02 3.489920000000000244e-01 -1.476300000000000112e-01 6.616480000000000139e-01 -1.410762999999999989e+00 5.985200000000000242e-02 -1.142185000000000006e+00 9.144199999999999551e-02 1.152398999999999951e+00 4.126859999999999973e-01 -1.512466000000000088e+00 -5.903869999999999951e-01 1.817410000000000136e-01 4.939549999999999774e-01 -6.596830000000000194e-01 5.309450000000000003e-01 9.077499999999999458e-02 -9.047749999999999959e-01 1.202830000000000066e+00 4.860490000000000088e-01 5.661730000000000373e-01 2.718869999999999898e-01 -2.945768000000000164e+00 2.812168999999999919e+00 -6.051320000000000032e-01 -2.551661999999999875e+00 4.056900000000000089e-02 -7.649500000000000188e-01 4.921320000000000139e-01 -4.032830000000000026e-01 -6.501339999999999897e-01 7.358109999999999928e-01 3.616840000000000055e-01 3.493189999999999906e-01 -5.366940000000000044e-01 6.647800000000000376e-01 -5.620030000000000303e-01 -2.161903000000000130e+00 6.779410000000000158e-01 6.755499999999999838e-01 9.203729999999999967e-01 -1.700536000000000048e+00 -1.017203000000000079e+00 7.800000000000000266e-01 -9.587799999999999656e-01 -7.478270000000000195e-01 9.841370000000000395e-01 -6.514510000000000023e-01 3.708790000000000142e-01 -3.813289999999999735e-01 -1.100589999999999957e+00 4.662580000000000058e-01 -2.210923999999999889e+00 -1.378956999999999988e+00 -2.630685999999999858e+00 -2.064150999999999847e+00 -2.141310999999999964e+00 7.844179999999999486e-01 1.805910000000000015e-01 2.014930000000000054e-01 -1.415743999999999891e+00 2.716664000000000190e+00 2.354137999999999842e+00 -3.072610000000000063e-01 3.954929999999999835e-01 -9.424219999999999819e-01 5.310900000000000343e-02 -5.428279999999999772e-01 1.557849000000000039e+00 5.594559999999999533e-01 9.128089999999999815e-01 1.260883999999999894e+00 -1.864263000000000003e+00 1.556700000000000028e-01 7.893459999999999921e-01 7.754130000000000189e-01 -4.261099999999999888e-01 3.683670000000000000e-01 6.024000000000000188e-02 -1.048211999999999922e+00 -6.670009999999999550e-01 -1.249539999999999956e-01 -1.655855999999999995e+00 -1.278600000000000014e-01 9.256999999999999951e-02 -2.214490000000000069e-01 1.260005999999999959e+00 1.659418999999999977e+00 -1.470526000000000000e+00 -6.419489999999999919e-01 4.599210000000000242e-01 1.336320000000000008e-01 1.335248999999999908e+00 1.156365000000000087e+00 1.476800000000000057e-01 9.282740000000000435e-01 -1.511929999999999941e-01 -2.533580000000000276e-01 9.167060000000000208e-01 -1.128365999999999980e+00 5.099299999999999944e-01 -2.057329000000000185e+00 -5.764799999999999786e-02 -8.991919999999999913e-01 -2.856146999999999991e+00 -3.351890000000000147e-01 7.213580000000000547e-01 9.418020000000000280e-01 -4.020839999999999970e-01 -1.141362999999999905e+00 -7.801169999999999494e-01 -5.148650000000000171e-01 1.932879999999999876e-01 -8.925170000000000048e-01 2.581439999999999846e-01 -7.758260000000000156e-01 -4.813769999999999993e-01 -1.031699999999999978e-01 -1.608797999999999950e+00 2.917551000000000005e+00 -1.298521999999999954e+00 -2.371179999999999954e-01 -3.102329999999999810e-01 -5.215060000000000251e-01 2.722040000000000015e-01 -6.953930000000000389e-01 -2.974450000000000038e+00 -1.535199999999999933e-02 1.071166000000000063e+00 5.220860000000000500e-01 1.045579999999999954e+00 6.685200000000000031e-01 2.414540000000000020e-01 -2.296829999999999983e-01 -5.079869999999999663e-01 -7.413799999999999557e-02 1.734339999999999993e+00 3.503490000000000215e-01 5.716560000000000530e-01 -9.342380000000000129e-01 -1.240569999999999951e+00 -1.233003999999999989e+00 8.746559999999999890e-01 3.580610000000000070e+00 7.509179999999999744e-01 -1.988517000000000090e+00 -8.010869999999999935e-01 7.839599999999999902e-01 1.226955999999999936e+00 1.049249000000000098e+00 1.095612999999999948e+00 7.414779999999999704e-01 -1.190179000000000098e+00 -2.154878000000000071e+00
1.280756999999999923e+00 -2.774337000000000053e+00 -7.711810000000000054e-01 -2.824380000000000224e-01 1.756229999999999958e+00 9.166720000000000423e-01 3.389829999999999788e-01 -2.762959999999999861e-01 1.033089999999999981e-01 4.576430000000000220e-01 2.099016999999999911e+00 -2.490749999999999909e-01 -1.954677999999999916e+00 1.167389999999999955e-01 5.517830000000000235e-01 1.193130000000000024e-01 -2.326515999999999806e+00 -8.685349999999999460e-01 4.757535999999999987e+00 -9.758879999999999777e-01 -1.615312000000000081e+00 -1.190822000000000047e+00 1.144293999999999922e+00 -4.936719999999999997e-01 -3.226119000000000181e+00 1.774500000000000036e-02 1.961562999999999946e+00 2.268670000000000131e-01 2.298119999999999885e-01 1.496659999999999935e-01 -1.947208999999999968e+00 -2.287164999999999893e+00 1.169778999999999902e+00 -1.771419999999999939e-01 -1.641461000000000059e+00 1.099699999999999983e-01 -1.117812000000000028e+00 1.728140000000000009e+00 -7.012260000000000160e-01 6.751239999999999464e-01 -2.725422000000000011e+00 1.581534999999999913e+00 8.282460000000000377e-01 -8.737620000000000386e-01 -2.588598999999999872e+00 -1.863559999999999939e-01 6.396840000000000304e-01 -1.521146000000000109e+00 -8.307930000000000037e-01 -4.971450000000000036e-01 -5.705109999999999904e-01 -1.250666000000000055e+00 -1.688249000000000111e+00 -2.028553000000000051e+00 3.164870000000000183e-01 -1.018651999999999891e+00 -6.379789999999999628e-01 1.504050000000000109e+00 4.309181999999999846e+00 -1.689494999999999969e+00 6.766579999999999817e-01 6.772179999999999866e-01 1.907772999999999941e+00 -2.015362000000000098e+00 1.806929999999999925e-01 1.526669999999999972e-01 -1.227970000000000034e-01 -8.548980000000000468e-01 -2.867230000000000167e+00 2.274577999999999989e+00 -1.088719999999999966e-01 1.740629999999999955e-01 -6.259599999999999886e-02 1.879550000000000110e-01 4.059440000000000270e-01 6.970610000000000417e-01 -1.281042999999999932e+00 2.330188999999999844e+00 -2.720159999999999800e-01 1.242126000000000063e+00 -1.793576999999999977e+00 -1.529101999999999961e+00 1.336929000000000034e+00 -2.366966000000000125e+00 7.076879999999999837e-01 -1.113979999999999970e+00 4.090145999999999837e+00 -1.713726000000000083e+00 -7.752949999999999564e-01 -3.488080000000000069e+00 -1.140255000000000019e+00 4.213600000000000123e-01 2.572960000000000247e-01 2.181268000000000207e+00 -1.037188999999999917e+00 3.553200000000000247e-01 -1.425184000000000006e+00 2.522065000000000001e+00 1.594707000000000097e+00 -3.885549999999999837e-01 -9.299669999999999881e-01 1.125779999999999975e-01 1.163866000000000067e+00 -1.549417999999999962e+00 -2.172232999999999858e+00 -1.121999999999999942e-01 -6.230759999999999632e-01 -7.538699999999999568e-02 9.852199999999999847e-02 -7.589519999999999600e-01 3.405500000000000194e-02 2.155737999999999932e+00 4.812420000000000031e-01 1.921420000000000072e-01 -1.964328999999999992e+00 4.317224999999999646e+00 2.007483999999999824e+00 -2.699953999999999965e+00 -2.018567000000000000e+00 7.550329999999999542e-01 1.540513999999999939e+00 1.732629999999999892e+00 -1.092576999999999909e+00 -2.460189999999999877e-01 8.460339999999999527e-01 1.102360000000000007e-01 1.626548000000000105e+00 2.390158000000000005e+00 -1.169578000000000007e+00 4.443570000000000020e-01 1.454218999999999928e+00 -1.304083000000000103e+00 3.754509999999999792e-01 -7.064499999999999946e-02 4.063510000000000177e-01 2.218856999999999857e+00 2.415707999999999966e+00 -1.211676999999999893e+00 3.538129999999999886e-01 -1.444429999999999881e-01 3.542629999999999946e-01 -1.320943999999999896e+00 2.337940000000000018e-01 1.445051000000000085e+00 1.055733999999999950e+00 6.189710000000000489e-01 -6.526500000000000357e-02 -5.834030000000000049e-01 -2.099108000000000196e+00 -1.226865000000000094e+00 -1.659135999999999944e+00 -5.660730000000000484e-01 -1.903043000000000040e+00 3.005802000000000085e+00 -9.075039999999999774e-01 2.140731999999999857e+00 3.850160000000000249e-01 9.973499999999999588e-01 1.177627999999999897e+00 5.444299999999999695e-01 1.969999999999999909e-04 1.667775000000000007e+00 3.692529999999999979e-01 -1.127579999999999971e-01 -1.023229999999999973e-01 -3.820359999999999978e+00 2.511677000000000159e+00 -1.814912999999999998e+00 9.585979999999999501e-01 1.016906000000000088e+00 3.251680000000000126e-01 -4.989099999999999785e-02 -1.408270000000000077e-01 -1.641524999999999901e+00 -1.292502999999999957e+00 -1.134843000000000046e+00 2.373564000000000007e+00 -1.075932000000000111e+00 -1.134322999999999970e+00 1.314963000000000104e+00 -3.116920000000000246e-01 1.124047999999999936e+00 -1.756299999999999875e-02 1.838565000000000005e+00 9.111439999999999539e-01 -1.196528999999999954e+00 1.140657999999999950e+00 1.291400000000000013e-02 -5.715219999999999745e-01 -1.091299000000000019e+00 1.023946999999999941e+00 -4.468420000000000170e-01 1.239776999999999907e+00 9.308319999999999927e-01 -7.063479999999999759e-01 1.301646999999999998e+00 2.491710000000000036e-01 2.175257000000000218e+00 -7.614140000000000352e-01 -5.542780000000000484e-01 3.781169999999999809e-01 1.683818000000000037e+00 -2.122736999999999874e+00 2.324630000000000030e-01 -2.064130000000000131e-01 -1.417173999999999934e+00 -1.411300000000000054e-01 2.172789999999999999e-01 -8.228969999999999896e-01 1.217397999999999980e+00 6.727109999999999479e-01 2.773045000000000204e+00 1.572761000000000076e+00 -5.521810000000000329e-01 1.004479999999999956e-01 -8.680419999999999803e-01 -5.019090000000000495e-01 5.261139999999999706e-01 -5.548030000000000461e-01 2.290232000000000046e+00 1.506348000000000020e+00 -4.906059999999999865e-01 -8.803039999999999754e-01 -1.733232000000000106e+00 -5.149380000000000068e-01 1.320542000000000105e+00 5.645729999999999915e-01 1.725729999999999986e+00 1.113253999999999966e+00 -1.565493000000000023e+00 1.211441999999999908e+00 6.906290000000000484e-01 -1.071981999999999990e+00 -1.231328999999999896e+00 -1.337256000000000000e+00 -4.901019999999999821e-01 9.222050000000000525e-01 5.621270000000000433e-01 -4.250400000000000011e-02 1.258966999999999947e+00 -8.062650000000000095e-01 8.433810000000000473e-01 5.736769999999999925e-01 5.916519999999999557e-01 -3.363059999999999938e-01 1.403127999999999931e+00 -2.268796000000000035e+00 -1.054558000000000106e+00 1.319433000000000078e+00 -1.060021000000000102e+00 5.087099999999999955e-02 8.248119999999999896e-01 5.535870000000000513e-01 -6.653080000000000105e-01 -1.496199000000000057e+00 -9.675120000000000386e-01 -5.115399999999999947e-01 -3.718580000000000219e-01 4.818439999999999945e-01 2.943529999999999758e-01 -3.898849999999999816e-01 9.763300000000000312e-01 -5.153689999999999660e-01 1.329223000000000043e+00 -5.145170000000000021e-01 1.400869999999999893e-01 -1.133831000000000033e+00 -9.404130000000000544e-01 -1.127419999999999950e-01 -1.841236000000000095e+00 -7.442520000000000246e-01 3.538330000000000086e-01 2.860010000000000052e-01 -1.410865000000000036e+00 -1.567512000000000016e+00 1.343248999999999915e+00