1.042019885999999929e+01 0.000000000000000000e+00 0.000000000000000000e+00 -1.187806529999999999e-01 1.044707469399999944e+01 0.000000000000000000e+00 2.040459999999999908e-04 -1.457600999999999992e-03 1.073753409200000064e+01
1.024170243700000071e+01 0.000000000000000000e+00 0.000000000000000000e+00 -1.167459589999999964e-01 1.026811789199999936e+01 0.000000000000000000e+00 2.005499999999999958e-04 -1.432632999999999997e-03 1.055360176499999980e+01
1.033490100100000042e+01 0.000000000000000000e+00 0.000000000000000000e+00 -1.178083359999999996e-01 1.036155683399999994e+01 0.000000000000000000e+00 2.023749999999999996e-04 -1.445670000000000028e-03 1.064963858399999985e+01
1.031586719200000068e+01 0.000000000000000000e+00 0.000000000000000000e+00 -1.175913680000000017e-01 1.034247393300000084e+01 0.000000000000000000e+00 2.020029999999999970e-04 -1.443007000000000057e-03 1.063002512199999927e+01
1.022108219899999959e+01 0.000000000000000000e+00 0.000000000000000000e+00 -1.165109069999999969e-01 1.024744446999999958e+01 0.000000000000000000e+00 2.001469999999999931e-04 -1.429748999999999907e-03 1.053235356100000075e+01
1.027311648599999927e+01 0.000000000000000000e+00 0.000000000000000000e+00 -1.171040500000000012e-01 1.029961296499999968e+01 0.000000000000000000e+00 2.011659999999999913e-04 -1.437027000000000009e-03 1.058597249299999987e+01
1.064047748700000007e+01 0.000000000000000000e+00 0.000000000000000000e+00 -1.212916259999999996e-01 1.066792146499999916e+01 0.000000000000000000e+00 2.083590000000000019e-04 -1.488415000000000094e-03 1.096452105300000035e+01
1.034436789199999929e+01 0.000000000000000000e+00 0.000000000000000000e+00 -1.179162500000000002e-01 1.037104814299999944e+01 0.000000000000000000e+00 2.025610000000000008e-04 -1.446994000000000058e-03 1.065939377900000018e+01
1.021753625000000021e+01 0.000000000000000000e+00 0.000000000000000000e+00 -1.164704859999999981e-01 1.024388937500000019e+01 0.000000000000000000e+00 2.000770000000000022e-04 -1.429252999999999904e-03 1.052869962399999970e+01
1.048101707100000013e+01 0.000000000000000000e+00 0.000000000000000000e+00 -1.194739249999999947e-01 1.050804976799999935e+01 0.000000000000000000e+00 2.052369999999999867e-04 -1.466108999999999945e-03 1.080020445199999912e+01
1.031954151100000061e+01 0.000000000000000000e+00 0.000000000000000000e+00 -1.176332519999999937e-01 1.034615772899999975e+01 0.000000000000000000e+00 2.020749999999999923e-04 -1.443520999999999910e-03 1.063381133799999922e+01
1.043073667900000068e+01 0.000000000000000000e+00 0.000000000000000000e+00 -1.189007740000000007e-01 1.045763969200000076e+01 0.000000000000000000e+00 2.042520000000000089e-04 -1.459075999999999906e-03 1.074839282800000007e+01
1.024425642799999991e+01 0.000000000000000000e+00 0.000000000000000000e+00 -1.167750719999999937e-01 1.027067847100000009e+01 0.000000000000000000e+00 2.005999999999999971e-04 -1.432990000000000088e-03 1.055623353500000050e+01
1.021067984899999992e+01 0.000000000000000000e+00 0.000000000000000000e+00 -1.163923300000000022e-01 1.023701529000000043e+01 0.000000000000000000e+00 1.999430000000000066e-04 -1.428292999999999967e-03 1.052163441899999974e+01
1.041028410100000023e+01 0.000000000000000000e+00 0.000000000000000000e+00 -1.186676339999999941e-01 1.043713436300000019e+01 0.000000000000000000e+00 2.038519999999999991e-04 -1.456215000000000070e-03 1.072731738999999962e+01
1.037378531000000059e+01 0.000000000000000000e+00 0.000000000000000000e+00 -1.182515809999999945e-01 1.040054143400000086e+01 0.000000000000000000e+00 2.031369999999999899e-04 -1.451108999999999906e-03 1.068970707100000084e+01
1.040883080400000082e+01 0.000000000000000000e+00 0.000000000000000000e+00 -1.186510679999999984e-01 1.043567731799999976e+01 0.000000000000000000e+00 2.038230000000000033e-04 -1.456010999999999894e-03 1.072581983599999944e+01
1.031148363800000034e+01 0.000000000000000000e+00 0.000000000000000000e+00 -1.175414000000000042e-01 1.033807907399999948e+01 0.000000000000000000e+00 2.019169999999999982e-04 -1.442394000000000055e-03 1.062550807300000066e+01
1.040108337000000027e+01 0.000000000000000000e+00 0.000000000000000000e+00 -1.185627540000000063e-01 1.042790990099999959e+01 0.000000000000000000e+00 2.036709999999999953e-04 -1.454928000000000081e-03 1.071783646099999920e+01
1.022826959700000060e+01 0.000000000000000000e+00 0.000000000000000000e+00 -1.165928370000000047e-01 1.025465040599999966e+01 0.000000000000000000e+00 2.002870000000000019e-04 -1.430754000000000010e-03 1.053975984300000057e+01
1.048369696600000012e+01 0.000000000000000000e+00 0.000000000000000000e+00 -1.195044729999999999e-01 1.051073657499999925e+01 0.000000000000000000e+00 2.052889999999999923e-04 -1.466484000000000103e-03 1.080296596099999995e+01
1.022608184199999926e+01 0.000000000000000000e+00 0.000000000000000000e+00 -1.165678980000000031e-01 1.025245700900000045e+01 0.000000000000000000e+00 2.002449999999999911e-04 -1.430447999999999963e-03 1.053750546300000046e+01
1.019784055000000045e+01 0.000000000000000000e+00 0.000000000000000000e+00 -1.162459730000000024e-01 1.022414287700000024e+01 0.000000000000000000e+00 1.996920000000000119e-04 -1.426497000000000095e-03 1.050840411499999938e+01
1.004364294099999988e+01 0.000000000000000000e+00 0.000000000000000000e+00 -1.144882630000000068e-01 1.006954756000000017e+01 0.000000000000000000e+00 1.966720000000000035e-04 -1.404927999999999949e-03 1.034951059399999984e+01
1.030725794099999959e+01 0.000000000000000000e+00 0.000000000000000000e+00 -1.174932310000000035e-01 1.033384247799999933e+01 0.000000000000000000e+00 2.018339999999999924e-04 -1.441802999999999965e-03 1.062115368699999962e+01
1.039267117400000018e+01 0.000000000000000000e+00 0.000000000000000000e+00 -1.184668630000000056e-01 1.041947600900000026e+01 0.000000000000000000e+00 2.035069999999999880e-04 -1.453751000000000088e-03 1.070916808199999970e+01
1.025790928099999988e+01 0.000000000000000000e+00 0.000000000000000000e+00 -1.169307019999999975e-01 1.028436653700000036e+01 0.000000000000000000e+00 2.008679999999999884e-04 -1.434900000000000021e-03 1.057030216999999972e+01
1.031456990300000065e+01 0.000000000000000000e+00 0.000000000000000000e+00 -1.175765800000000000e-01 1.034117329799999929e+01 0.000000000000000000e+00 2.019769999999999942e-04 -1.442825999999999918e-03 1.062868832600000069e+01
1.046735142200000013e+01 0.000000000000000000e+00 0.000000000000000000e+00 -1.193181489999999983e-01 1.049434887199999977e+01 0.000000000000000000e+00 2.049689999999999954e-04 -1.464196999999999981e-03 1.078612263199999965e+01
1.046759584499999995e+01 0.000000000000000000e+00 0.000000000000000000e+00 -1.193209350000000030e-01 1.049459392500000021e+01 0.000000000000000000e+00 2.049739999999999928e-04 -1.464231000000000083e-03 1.078637449800000070e+01
1.039540071599999926e+01 0.000000000000000000e+00 0.000000000000000000e+00 -1.184979770000000043e-01 1.042221259000000089e+01 0.000000000000000000e+00 2.035600000000000094e-04 -1.454133000000000031e-03 1.071198074900000030e+01
1.040458114800000011e+01 0.000000000000000000e+00 0.000000000000000000e+00 -1.186026260000000027e-01 1.043141670099999985e+01 0.000000000000000000e+00 2.037399999999999975e-04 -1.455417000000000082e-03 1.072144076100000021e+01
1.041533855900000027e+01 0.000000000000000000e+00 0.000000000000000000e+00 -1.187252500000000044e-01 1.044220185800000067e+01 0.000000000000000000e+00 2.039510000000000129e-04 -1.456922000000000035e-03 1.073252577599999924e+01
1.034713253199999983e+01 0.000000000000000000e+00 0.000000000000000000e+00 -1.179477639999999966e-01 1.037381991300000017e+01 0.000000000000000000e+00 2.026150000000000108e-04 -1.447380999999999971e-03 1.066224261300000009e+01
1.037651011400000023e+01 0.000000000000000000e+00 0.000000000000000000e+00 -1.182826419999999934e-01 1.040327326599999935e+01 0.000000000000000000e+00 2.031900000000000112e-04 -1.451489999999999942e-03 1.069251485500000065e+01
1.045513058300000075e+01 0.000000000000000000e+00 0.000000000000000000e+00 -1.191788419999999932e-01 1.048209651300000012e+01 0.000000000000000000e+00 2.047299999999999999e-04 -1.462488000000000069e-03 1.077352961999999970e+01
1.039871873100000066e+01 0.000000000000000000e+00 0.000000000000000000e+00 -1.185357989999999972e-01 1.042553916299999983e+01 0.000000000000000000e+00 2.036250000000000028e-04 -1.454596999999999965e-03 1.071539980999999919e+01
1.043870799599999977e+01 0.000000000000000000e+00 0.000000000000000000e+00 -1.189916399999999957e-01 1.046563156899999925e+01 0.000000000000000000e+00 2.044079999999999986e-04 -1.460191000000000006e-03 1.075660690299999978e+01
1.044894563699999956e+01 0.000000000000000000e+00 0.000000000000000000e+00 -1.191083399999999931e-01 1.047589561500000066e+01 0.000000000000000000e+00 2.046089999999999921e-04 -1.461623000000000002e-03 1.076715631899999970e+01
1.026732865800000027e+01 0.000000000000000000e+00 0.000000000000000000e+00 -1.170380740000000058e-01 1.029381020900000010e+01 0.000000000000000000e+00 2.010520000000000124e-04 -1.436217999999999956e-03 1.058000840300000078e+01
1.023619184100000012e+01 0.000000000000000000e+00 0.000000000000000000e+00 -1.166831430000000031e-01 1.026259308300000050e+01 0.000000000000000000e+00 2.004429999999999916e-04 -1.431861999999999892e-03 1.054792334999999959e+01
1.025023728600000084e+01 0.000000000000000000e+00 0.000000000000000000e+00 -1.168432479999999968e-01 1.027667475400000008e+01 0.000000000000000000e+00 2.007180000000000119e-04 -1.433826999999999931e-03 1.056239653299999937e+01
1.009749497600000012e+01 0.000000000000000000e+00 0.000000000000000000e+00 -1.151021269999999985e-01 1.012353848999999961e+01 0.000000000000000000e+00 1.977269999999999993e-04 -1.412461000000000055e-03 1.040500263100000033e+01
1.052090038799999938e+01 0.000000000000000000e+00 0.000000000000000000e+00 -1.199285580000000045e-01 1.054803595199999933e+01 0.000000000000000000e+00 2.060180000000000052e-04 -1.471688000000000076e-03 1.084130236999999930e+01
1.035939778300000036e+01 0.000000000000000000e+00 0.000000000000000000e+00 -1.180875769999999991e-01 1.038611679799999976e+01 0.000000000000000000e+00 2.028549999999999950e-04 -1.449095999999999978e-03 1.067488138799999930e+01
1.036059673299999950e+01 0.000000000000000000e+00 0.000000000000000000e+00 -1.181012439999999941e-01 1.038731884100000080e+01 0.000000000000000000e+00 2.028789999999999934e-04 -1.449264000000000021e-03 1.067611684999999966e+01
1.030708082099999956e+01 0.000000000000000000e+00 0.000000000000000000e+00 -1.174912119999999977e-01 1.033366490000000049e+01 0.000000000000000000e+00 2.018309999999999993e-04 -1.441777999999999896e-03 1.062097117299999915e+01
1.057349259999999980e+01 0.000000000000000000e+00 0.000000000000000000e+00 -1.205280600000000063e-01 1.060076381100000020e+01 0.000000000000000000e+00 2.070469999999999982e-04 -1.479045000000000012e-03 1.089549621799999990e+01
1.043782855499999940e+01 0.000000000000000000e+00 0.000000000000000000e+00 -1.189816149999999989e-01 1.046474985999999952e+01 0.000000000000000000e+00 2.043910000000000019e-04 -1.460067999999999913e-03 1.075570068000000035e+01
1.035146312200000018e+01 0.000000000000000000e+00 0.000000000000000000e+00 -1.179971290000000061e-01 1.037816167199999917e+01 0.000000000000000000e+00 2.026999999999999939e-04 -1.447986999999999972e-03 1.066670508600000034e+01
1.047607309400000020e+01 0.000000000000000000e+00 0.000000000000000000e+00 -1.194175680000000017e-01 1.050309303899999946e+01 0.000000000000000000e+00 2.051400000000000044e-04 -1.465417000000000108e-03 1.079510991199999914e+01
1.039461030000000008e+01 0.000000000000000000e+00 0.000000000000000000e+00 -1.184889670000000006e-01 1.042142013600000006e+01 0.000000000000000000e+00 2.035449999999999900e-04 -1.454021999999999910e-03 1.071116626200000077e+01
1.044167081300000000e+01 0.000000000000000000e+00 0.000000000000000000e+00 -1.190254139999999961e-01 1.046860202799999939e+01 0.000000000000000000e+00 2.044659999999999902e-04 -1.460605000000000020e-03 1.075965994899999956e+01
1.033179347399999948e+01 0.000000000000000000e+00 0.000000000000000000e+00 -1.177729130000000068e-01 1.035844129200000019e+01 0.000000000000000000e+00 2.023150000000000035e-04 -1.445235000000000009e-03 1.064643642100000065e+01
1.019286224000000018e+01 0.000000000000000000e+00 0.000000000000000000e+00 -1.161892249999999932e-01 1.021915172599999977e+01 0.000000000000000000e+00 1.995939999999999867e-04 -1.425800999999999978e-03 1.050327419499999948e+01
1.043004614700000054e+01 0.000000000000000000e+00 0.000000000000000000e+00 -1.188929029999999942e-01 1.045694737900000071e+01 0.000000000000000000e+00 2.042389999999999939e-04 -1.458979000000000005e-03 1.074768126700000082e+01
1.027890168000000060e+01 0.000000000000000000e+00 0.000000000000000000e+00 -1.171699959999999985e-01 1.030541307999999923e+01 0.000000000000000000e+00 2.012790000000000087e-04 -1.437836999999999969e-03 1.059193386900000000e+01
1.055280571399999978e+01 0.000000000000000000e+00 0.000000000000000000e+00 -1.202922490000000039e-01 1.058002356899999974e+01 0.000000000000000000e+00 2.066419999999999911e-04 -1.476150999999999982e-03 1.087417933699999928e+01
1.023499300900000009e+01 0.000000000000000000e+00 0.000000000000000000e+00 -1.166694769999999937e-01 1.026139115900000043e+01 0.000000000000000000e+00 2.004189999999999932e-04 -1.431694000000000066e-03 1.054668800900000036e+01
1.028421215900000085e+01 0.000000000000000000e+00 0.000000000000000000e+00 -1.172305299999999995e-01 1.031073725599999946e+01 0.000000000000000000e+00 2.013829999999999928e-04 -1.438578999999999943e-03 1.059740607200000007e+01
1.026749386900000083e+01 0.000000000000000000e+00 0.000000000000000000e+00 -1.170399570000000000e-01 1.029397584600000037e+01 0.000000000000000000e+00 2.010550000000000054e-04 -1.436240999999999993e-03 1.058017864600000024e+01
1.025851969500000038e+01 0.000000000000000000e+00 0.000000000000000000e+00 -1.169376599999999988e-01 1.028497852499999965e+01 0.000000000000000000e+00 2.008799999999999876e-04 -1.434984999999999950e-03 1.057093117299999996e+01
1.019646735999999976e+01 0.000000000000000000e+00 0.000000000000000000e+00 -1.162303199999999981e-01 1.022276614499999958e+01 0.000000000000000000e+00 1.996649999999999933e-04 -1.426305000000000107e-03 1.050698910600000069e+01
1.057161907399999912e+01 0.000000000000000000e+00 0.000000000000000000e+00 -1.205067040000000061e-01 1.059888545199999932e+01 0.000000000000000000e+00 2.070110000000000006e-04 -1.478782000000000100e-03 1.089356563499999986e+01
1.031520192800000046e+01 0.000000000000000000e+00 0.000000000000000000e+00 -1.175837849999999962e-01 1.034180695400000083e+01 0.000000000000000000e+00 2.019900000000000092e-04 -1.442914000000000002e-03 1.062933959899999969e+01
1.047692515700000015e+01 0.000000000000000000e+00 0.000000000000000000e+00 -1.194272809999999962e-01 1.050394730000000010e+01 0.000000000000000000e+00 2.051560000000000124e-04 -1.465535999999999922e-03 1.079598792400000029e+01
1.025612616199999927e+01 0.000000000000000000e+00 0.000000000000000000e+00 -1.169103759999999964e-01 1.028257881899999937e+01 0.000000000000000000e+00 2.008330000000000065e-04 -1.434650999999999895e-03 1.056846474800000024e+01
1.039927346600000035e+01 0.000000000000000000e+00 0.000000000000000000e+00 -1.185421229999999992e-01 1.042609532900000069e+01 0.000000000000000000e+00 2.036360000000000134e-04 -1.454673999999999984e-03 1.071597143900000049e+01
1.017395352499999994e+01 0.000000000000000000e+00 0.000000000000000000e+00 -1.159736829999999941e-01 1.020019424200000024e+01 0.000000000000000000e+00 1.992239999999999886e-04 -1.423156000000000074e-03 1.048378963699999922e+01
1.041480429099999938e+01 0.000000000000000000e+00 0.000000000000000000e+00 -1.187191600000000041e-01 1.044166621099999936e+01 0.000000000000000000e+00 2.039400000000000024e-04 -1.456847000000000046e-03 1.073197523800000042e+01
1.017118501899999927e+01 0.000000000000000000e+00 0.000000000000000000e+00 -1.159421249999999931e-01 1.019741859500000025e+01 0.000000000000000000e+00 1.991700000000000057e-04 -1.422768999999999943e-03 1.048093681900000007e+01
1.026890006600000049e+01 0.000000000000000000e+00 0.000000000000000000e+00 -1.170559860000000008e-01 1.029538566999999993e+01 0.000000000000000000e+00 2.010830000000000126e-04 -1.436437000000000044e-03 1.058162766699999935e+01
1.043910556400000011e+01 0.000000000000000000e+00 0.000000000000000000e+00 -1.189961719999999973e-01 1.046603016199999914e+01 0.000000000000000000e+00 2.044159999999999890e-04 -1.460245999999999897e-03 1.075701657800000000e+01
1.054539313299999925e+01 0.000000000000000000e+00 0.000000000000000000e+00 -1.202077520000000010e-01 1.057259186900000003e+01 0.000000000000000000e+00 2.064970000000000119e-04 -1.475114000000000026e-03 1.086654101399999917e+01
1.027531528799999982e+01 0.000000000000000000e+00 0.000000000000000000e+00 -1.171291140000000064e-01 1.030181743800000049e+01 0.000000000000000000e+00 2.012089999999999907e-04 -1.437335000000000088e-03 1.058823825700000043e+01
1.058767889699999998e+01 0.000000000000000000e+00 0.000000000000000000e+00 -1.206897710000000012e-01 1.061498669600000078e+01 0.000000000000000000e+00 2.073250000000000114e-04 -1.481029000000000026e-03 1.091011454200000053e+01
1.039883438799999915e+01 0.000000000000000000e+00 0.000000000000000000e+00 -1.185371179999999969e-01 1.042565511899999997e+01 0.000000000000000000e+00 2.036270000000000072e-04 -1.454613000000000000e-03 1.071551898999999963e+01
1.019535154599999949e+01 0.000000000000000000e+00 0.000000000000000000e+00 -1.162176010000000037e-01 1.022164745299999922e+01 0.000000000000000000e+00 1.996429999999999993e-04 -1.426149000000000036e-03 1.050583931100000079e+01
1.037125500700000025e+01 0.000000000000000000e+00 0.000000000000000000e+00 -1.182227379999999939e-01 1.039800460500000057e+01 0.000000000000000000e+00 2.030869999999999887e-04 -1.450754999999999970e-03 1.068709971000000003e+01
1.042164431199999974e+01 0.000000000000000000e+00 0.000000000000000000e+00 -1.187971300000000008e-01 1.044852387399999927e+01 0.000000000000000000e+00 2.040739999999999980e-04 -1.457804000000000044e-03 1.073902356299999994e+01
1.033599250500000011e+01 0.000000000000000000e+00 0.000000000000000000e+00 -1.178207780000000010e-01 1.036265115399999992e+01 0.000000000000000000e+00 2.023969999999999936e-04 -1.445822999999999943e-03 1.065076332900000011e+01
1.032823124799999981e+01 0.000000000000000000e+00 0.000000000000000000e+00 -1.177323069999999944e-01 1.035486987900000067e+01 0.000000000000000000e+00 2.022450000000000127e-04 -1.444736999999999974e-03 1.064276571199999921e+01
1.035675064299999981e+01 0.000000000000000000e+00 0.000000000000000000e+00 -1.180574020000000057e-01 1.038346283099999923e+01 0.000000000000000000e+00 2.028029999999999894e-04 -1.448726000000000007e-03 1.067215363200000056e+01
1.034198162000000032e+01 0.000000000000000000e+00 0.000000000000000000e+00 -1.178890489999999958e-01 1.036865571499999916e+01 0.000000000000000000e+00 2.025139999999999926e-04 -1.446660000000000003e-03 1.065693483499999950e+01
1.042214150799999928e+01 0.000000000000000000e+00 0.000000000000000000e+00 -1.188027970000000016e-01 1.044902235300000015e+01 0.000000000000000000e+00 2.040839999999999928e-04 -1.457872999999999938e-03 1.073953590200000008e+01
1.028884393000000053e+01 0.000000000000000000e+00 0.000000000000000000e+00 -1.172833280000000061e-01 1.031538097299999990e+01 0.000000000000000000e+00 2.014739999999999890e-04 -1.439226999999999954e-03 1.060217889800000002e+01
1.048496175400000041e+01 0.000000000000000000e+00 0.000000000000000000e+00 -1.195188900000000026e-01 1.051200462499999944e+01 0.000000000000000000e+00 2.053140000000000065e-04 -1.466660999999999963e-03 1.080426926600000037e+01
1.014808164299999937e+01 0.000000000000000000e+00 0.000000000000000000e+00 -1.156787680000000013e-01 1.017425563099999941e+01 0.000000000000000000e+00 1.987170000000000017e-04 -1.419537000000000012e-03 1.045712985699999997e+01
1.044135477200000039e+01 0.000000000000000000e+00 0.000000000000000000e+00 -1.190218110000000051e-01 1.046828517199999986e+01 0.000000000000000000e+00 2.044600000000000042e-04 -1.460560999999999977e-03 1.075933428399999947e+01
1.028924259699999944e+01 0.000000000000000000e+00 0.000000000000000000e+00 -1.172878720000000013e-01 1.031578066800000038e+01 0.000000000000000000e+00 2.014809999999999908e-04 -1.439282999999999969e-03 1.060258970599999984e+01
1.019758936500000068e+01 0.000000000000000000e+00 0.000000000000000000e+00 -1.162431099999999967e-01 1.022389104400000015e+01 0.000000000000000000e+00 1.996869999999999873e-04 -1.426462000000000086e-03 1.050814528000000081e+01
1.051291528700000022e+01 0.000000000000000000e+00 0.000000000000000000e+00 -1.198375349999999950e-01 1.054003025599999965e+01 0.000000000000000000e+00 2.058609999999999997e-04 -1.470570999999999944e-03 1.083307409200000038e+01
1.049271042800000053e+01 0.000000000000000000e+00 0.000000000000000000e+00 -1.196072180000000013e-01 1.051977328499999942e+01 0.000000000000000000e+00 2.054659999999999874e-04 -1.467744999999999900e-03 1.081225391699999960e+01
1.029319084900000014e+01 0.000000000000000000e+00 0.000000000000000000e+00 -1.173328790000000010e-01 1.031973910399999994e+01 0.000000000000000000e+00 2.015589999999999992e-04 -1.439834999999999986e-03 1.060665819799999987e+01
1.035726607099999974e+01 0.000000000000000000e+00 0.000000000000000000e+00 -1.180632769999999943e-01 1.038397958900000084e+01 0.000000000000000000e+00 2.028130000000000113e-04 -1.448798000000000056e-03 1.067268475800000083e+01
1.025452656500000082e+01 0.000000000000000000e+00 0.000000000000000000e+00 -1.168921420000000044e-01 1.028097509600000059e+01 0.000000000000000000e+00 2.008020000000000063e-04 -1.434427000000000054e-03 1.056681643699999995e+01
1.030504112400000061e+01 0.000000000000000000e+00 0.000000000000000000e+00 -1.174679609999999957e-01 1.033161994299999975e+01 0.000000000000000000e+00 2.017909999999999929e-04 -1.441493000000000071e-03 1.061886935999999970e+01
1.019582789500000075e+01 0.000000000000000000e+00 0.000000000000000000e+00 -1.162230310000000044e-01 1.022212503000000083e+01 0.000000000000000000e+00 1.996520000000000055e-04 -1.426215999999999899e-03 1.050633016599999969e+01
1.033351189300000073e+01 0.000000000000000000e+00 0.000000000000000000e+00 -1.177925019999999934e-01 1.036016414300000044e+01 0.000000000000000000e+00 2.023480000000000081e-04 -1.445476000000000009e-03 1.064820717299999941e+01
1.033767257799999939e+01 0.000000000000000000e+00 0.000000000000000000e+00 -1.178399299999999955e-01 1.036433556000000067e+01 0.000000000000000000e+00 2.024299999999999982e-04 -1.446058000000000066e-03 1.065249456699999975e+01
