-8.909562312799999972e+02
-8.944446159300000545e+02
-8.931714253200000257e+02
-9.079127464199999622e+02
-8.879967577200000051e+02
-8.954204094100000475e+02
-8.800702969999999823e+02
-9.024929537000000437e+02
-9.093862717499999917e+02
-8.863936141299999463e+02
-8.911541792900000019e+02
-8.995255078400000457e+02
-9.094816171200000099e+02
-8.989411101199999621e+02
-8.934983077499999808e+02
-8.875566186600000265e+02
-8.917680939599999874e+02
-9.048200634199999968e+02
-8.964017305300000089e+02
-9.008036877700000105e+02
-8.872675727499999994e+02
-9.076301316499999530e+02
-9.006812955799999827e+02
-9.187076607400000512e+02
-9.002787974399999484e+02
-8.907790823499999533e+02
-8.875596181099999740e+02
-9.006066822699999648e+02
-8.921734128399999690e+02
-8.881861164399999780e+02
-8.810357462900000201e+02
-8.995455713100000139e+02
-8.810167269700000361e+02
-8.962352651800000558e+02
-8.923246402700000317e+02
-8.863264532900000177e+02
-8.905818019800000229e+02
-8.880869557500000155e+02
-8.901319130199999563e+02
-8.982522490899999639e+02
-8.985499587599999813e+02
-9.118896107799999982e+02
-9.092479351399999814e+02
-8.849408648400000175e+02
-9.044832670199999711e+02
-8.835986786400000028e+02
-9.071451500199999600e+02
-8.836369037399999797e+02
-8.838028561800000489e+02
-8.863871551900000441e+02
-8.934966879700000391e+02
-8.857495423799999799e+02
-8.884369515299999875e+02
-8.801644506699999511e+02
-9.188016694000000371e+02
-8.840179418100000248e+02
-8.892866258100000323e+02
-8.800858234999999468e+02
-9.000778594099999736e+02
-8.910341528899999730e+02
-9.117890850799999498e+02
-8.956807543400000213e+02
-9.122399374499999567e+02
-8.853669538100000409e+02
-9.070383485500000234e+02
-8.800408754300000282e+02
-9.019580410800000436e+02
-8.884127004399999805e+02
-9.019825586800000110e+02
-8.927984571599999981e+02
-9.122988478299999997e+02
-8.901536854400000038e+02
-8.866511110799999642e+02
-8.830657347000000073e+02
-9.027787957900000038e+02
-8.871154798100000107e+02
-8.889203518699999904e+02
-8.963637443799999573e+02
-8.905101873999999498e+02
-8.807720563300000549e+02
-8.982712428099999897e+02
-9.085781920399999763e+02
-9.000310288800000080e+02
-8.983178120300000273e+02
-8.884875476099999787e+02
-9.079985872700000300e+02
-8.773129260499999873e+02
-9.045358199199999945e+02
-8.883181896999999481e+02
-9.049075617099999818e+02
-9.061770851700000549e+02
-8.861266735599999720e+02
-8.850368016500000294e+02
-8.998849939699999823e+02
-9.015141749199999595e+02
-8.966020971000000372e+02
-9.059598766899999873e+02
-9.120059408500000018e+02
-9.032313837000000376e+02
-8.993581278599999678e+02
