-4.351291999999999938e+00 -2.958000000000000074e-01 -2.866264999999999841e+00 -6.374919999999999476e-01 7.510609999999999786e-01 2.460990000000000122e-01 -2.806411999999999907e+00 -3.465281000000000056e+00 -2.906538999999999984e+00 -1.319339999999999957e-01 -8.870980000000000532e-01 -1.315099999999999936e+00 -7.343600000000000128e-01 4.255618000000000123e+00 -6.012030000000000429e-01 1.807879999999999932e+00 9.558899999999999342e-02 3.998746000000000134e+00 1.745599999999999929e-02 -2.281416999999999806e+00 7.274739999999999540e-01 -1.193059000000000092e+00 6.188409999999999744e-01 -5.923999999999999579e-03 -8.167520000000000335e-01 2.842163999999999913e+00 5.192900000000000293e-01 -6.312830000000000386e-01 8.556500000000000217e-01 -1.529390999999999945e+00 1.872319000000000067e+00 -6.036230000000000206e-01 -8.753990000000000382e-01 2.091169999999999973e+00 -2.431260000000000088e-01 3.256390000000000118e-01 1.038772000000000029e+00 2.451119999999999965e-01 -5.627299999999999525e-01 2.034337999999999980e+00 2.326919000000000182e+00 5.339479999999999782e-01 1.519659999999999900e-01 2.142281999999999798e+00 -2.431512000000000118e+00 1.443370999999999960e+00 1.939805000000000001e+00 1.423234000000000110e+00 7.529609999999999914e-01 -1.891791000000000000e+00 1.738175000000000026e+00 -2.882009999999999850e-01 2.326519999999999977e-01 5.852979999999999849e-01 2.565900000000000125e-02 -3.030393000000000114e+00 -1.576327999999999951e+00 -2.191699999999999898e-02 -4.716499999999999859e-02 1.098794999999999966e+00 1.345110000000000028e+00 -3.522917000000000076e+00 2.184560999999999975e+00 -3.363079999999999958e-01 -7.645779999999999799e-01 1.442228000000000065e+00 3.400319000000000091e+00 -1.139245999999999981e+00 -3.552580000000000182e-01 2.582091999999999832e+00 -4.401514999999999844e+00 3.809064999999999923e+00 -7.807190000000000518e-01 -1.647631999999999985e+00 -7.569580000000000197e-01 -5.081919999999999771e-01 1.111458999999999975e+00 -9.208859999999999824e-01 -1.328888999999999987e+00 2.141742999999999952e+00 -1.615218999999999960e+00 -3.730894999999999850e+00 -9.922260000000000524e-01 -5.232099999999999529e-01 6.991910000000000069e-01 -1.928798000000000012e+00 2.038940000000000197e+00 1.305399999999999963e-02 3.766372000000000053e+00 -3.721311000000000035e+00 1.834076000000000040e+00 -7.054639999999999800e-01 9.977500000000000258e-02 -3.798449999999999882e-01 1.378886000000000056e+00 6.785250000000000448e-01 7.230649999999999578e-01 1.096694000000000058e+00 7.592360000000000220e-01 2.167580000000000062e-01 -1.186722999999999972e+00 -1.602368000000000015e+00 2.414947000000000177e+00 -5.185969999999999747e-01 7.053840000000000110e-01 9.247309999999999697e-01 -5.885240000000000471e-01 1.585612000000000021e+00 1.901116999999999946e+00 2.295272999999999897e+00 2.074863000000000124e+00 -8.262800000000000145e-01 2.343913000000000135e+00 -1.857974000000000014e+00 1.362680000000000002e-01 -1.899483000000000033e+00 -1.555441000000000074e+00 -1.766307999999999989e+00 1.746429999999999927e-01 -1.033759000000000094e+00 2.093005999999999922e+00 1.319569999999999910e+00 -1.035811000000000037e+00 -1.766570000000000085e-01 8.065700000000000647e-02 -3.824259999999999882e-01 1.625860000000000083e-01 1.024137000000000075e+00 -1.546059999999999934e-01 -1.553180999999999923e+00 6.567159999999999664e-01 3.137579999999999814e-01 -1.122959000000000040e+00 -1.354380000000000028e-01 1.669958000000000053e+00 -7.517449999999999966e-01 -1.905756999999999923e+00 -2.353963999999999945e+00 -2.650930999999999926e+00 -4.676299999999999901e-02 5.692139999999999977e-01 -3.245040000000000147e-01 -5.435630000000000184e-01 -3.099979999999999958e-01 -1.385988999999999916e+00 5.528549999999999853e-01 5.978759999999999630e-01 9.038140000000000063e-01 4.907429999999999848e-01 -2.843399999999999817e-01 -1.168234999999999912e+00 3.854540000000000188e-01 -1.756979999999999931e-01 6.503699999999999759e-02 3.690669999999999895e+00 -2.556659999999999933e+00 1.432490000000000041e+00 -2.383900000000000130e+00 -7.216470000000000384e-01 -1.480637999999999899e+00 1.927135000000000042e+00 -1.934941999999999940e+00 -1.292081999999999953e+00 -5.856390000000000207e-01 -2.116788999999999810e+00 -4.354939999999999922e-01 1.551968999999999932e+00 -1.382104999999999917e+00 5.446299999999999475e-01 -2.252689000000000163e+00 4.383886999999999645e+00 1.418144000000000071e+00 4.491939999999999822e-01 -3.879940000000000055e-01 3.370349999999999735e-01 -2.080019999999999925e-01 -3.291786000000000101e+00 -9.001850000000000129e-01 -1.227276000000000034e+00 9.475869999999999571e-01 2.659574999999999800e+00 1.888350000000000029e-01 1.056087999999999916e+00 6.960370000000000168e-01 -4.493199999999999972e-02 -1.542051999999999978e+00 9.361450000000000049e-01 1.167289999999999994e-01 6.616760000000000197e+00 -6.379129999999999523e-01 2.779179999999999984e-01 -4.214400000000000091e-02 1.749919000000000002e+00 -1.606964000000000059e+00 3.874168000000000056e+00 -6.305849999999999511e-01 -3.535940000000000194e-01 9.333600000000000230e-02 -9.755500000000000282e-02 2.699164000000000119e+00 1.879353999999999969e+00 -7.015580000000000149e-01 -3.094430000000000236e-01 1.086908999999999903e+00 -1.382246000000000086e+00 -1.795131000000000032e+00 -9.641619999999999635e-01 -6.464649999999999563e-01 -1.591499999999999915e+00 -9.016800000000000370e-01 -5.174999999999999913e-03 1.595787999999999984e+00 -2.120938000000000212e+00 -1.141046000000000005e+00 -1.033543000000000101e+00 -1.904608000000000079e+00 4.563030000000000141e-01 -1.588921000000000028e+00 3.305759999999999810e-01 -9.991229999999999833e-01 2.010190000000000032e-01 -6.779990000000000183e-01 1.546299999999999931e-02 -1.473243000000000080e+00 -7.088569999999999593e-01 9.471220000000000194e-01 -1.026847999999999983e+00 -9.304339999999999833e-01 -3.359640000000000182e+00 5.306490000000000373e-01 -5.888499999999999845e-01 6.410059999999999647e-01 -1.321377999999999941e+00 8.266400000000000414e-01 4.222790000000000155e-01 2.918229999999999991e-01 -2.015859999999999985e+00 7.542290000000000383e-01 -8.624960000000000404e-01 3.123000000000000220e-01 4.086090000000000000e-01 -3.476598000000000077e+00 3.433640000000000025e-01 -2.334947000000000106e+00 -1.687009999999999899e+00 6.509220000000000006e-01 4.293204000000000242e+00 4.400555999999999912e+00 3.008703999999999823e+00 -9.725629999999999553e-01 1.632450000000000012e-01 6.462109999999999799e-01 -4.074049999999999727e+00 -3.829663000000000039e+00 -7.845710000000000184e-01 1.551911999999999958e+00 5.234950000000000436e+00 1.418614000000000042e+00 -3.321701000000000015e+00 3.932860000000000245e-01 2.421346000000000220e+00 1.268947999999999965e+00 -1.646063000000000054e+00 -2.879852000000000078e+00 -6.446560000000000068e-01 1.630034999999999901e+00 -8.324329999999999785e-01 -6.006700000000000234e-02 9.381699999999999484e-01 5.751589999999999758e-01 2.883814999999999795e+00 1.266224999999999934e+00 -6.232710000000000194e-01 7.699589999999999490e-01 3.029762999999999984e+00 1.150331999999999910e+00 8.928939999999999655e-01 2.520846999999999838e+00 1.403359999999999941e+00 1.039797000000000082e+00 -7.911160000000000414e-01 8.323120000000000518e-01 -1.248553999999999942e+00 -2.453911999999999871e+00 -3.643660000000000232e-01
1.905402999999999958e+00 1.702760999999999969e+00 -3.561909999999999799e-01 -1.149801999999999991e+00 5.350628999999999635e+00 9.396489999999999565e-01 -3.133199999999999985e+00 -1.873572000000000015e+00 5.609150000000000524e-01 1.653054999999999941e+00 -3.195060999999999929e+00 -2.543842000000000159e+00 2.970511000000000124e+00 5.807964000000000127e+00 4.941190999999999889e+00 -2.206410000000000038e-01 2.519064999999999888e+00 -1.342675999999999981e+00 -3.974089999999999900e+00 6.346366999999999869e+00 4.121742000000000239e+00 -1.498782999999999976e+00 1.827290999999999999e+00 3.142999999999999960e-03 5.261890000000000178e-01 9.215640000000000498e-01 -2.572280000000000122e-01 -6.299639999999999684e-01 -1.023921999999999999e+00 -1.913659999999999917e+00 1.817526999999999893e+00 3.060777999999999999e+00 -4.400040000000000062e-01 2.577520999999999951e+00 1.658582000000000001e+00 2.194033999999999818e+00 1.377741000000000104e+00 3.181559999999999944e-01 2.982981000000000105e+00 5.393790000000000529e-01 -4.346699000000000090e+00 3.919670000000000099e-01 4.827270000000000172e-01 -6.534800000000000331e-02 1.621051000000000020e+00 8.966460000000000541e-01 2.302346000000000004e+00 -1.031041000000000096e+00 -3.401015999999999817e+00 -9.437269999999999825e-01 -9.063799999999999635e-01 6.875879999999999770e-01 -2.116883000000000070e+00 4.641509999999999803e-01 8.383169999999999789e-01 2.104169999999999929e-01 -2.267965999999999926e+00 -1.024211999999999900e+00 -2.357876000000000083e+00 -1.231219000000000063e+00 7.723280000000000145e-01 -1.798991000000000007e+00 -7.193319999999999714e-01 -3.047505000000000130e+00 -3.337234000000000034e+00 -2.329172999999999938e+00 -1.998558000000000057e+00 1.365669999999999940e+00 8.599980000000000402e-01 3.401962000000000153e+00 -3.223095999999999961e+00 5.869195999999999636e+00 -1.804719999999999935e-01 3.030695999999999835e+00 3.741860000000000186e-01 -2.376643000000000061e+00 8.507280000000000397e-01 -4.567038000000000153e+00 -2.666208999999999829e+00 2.886134000000000199e+00 2.675059000000000076e+00 1.889585000000000070e+00 -2.032122999999999902e+00 -1.809291999999999900e+00 6.007249999999999535e-01 4.001618999999999815e+00 -5.527396999999999672e+00 -2.869597000000000175e+00 -2.041103000000000112e+00 4.420575999999999617e+00 6.137510000000000465e-01 2.567593000000000014e+00 4.578960000000000252e-01 -1.491614999999999913e+00 -1.650206000000000062e+00 -2.482072000000000056e+00 2.118726000000000109e+00 -9.584920000000000107e-01 -1.964920000000000000e-01 2.462090000000000112e-01 -1.926204000000000027e+00 -8.876290000000000013e-01 2.196108999999999867e+00 4.334437999999999569e+00 4.797719999999999763e-01 1.999697000000000058e+00 5.201249999999999929e+00 2.376653999999999822e+00 -7.660519999999999552e-01 7.074740000000000473e-01 2.871659000000000184e+00 6.762439999999999563e-01 -2.780770000000000186e-01 5.181959999999999900e-01 -3.866617000000000193e+00 1.973776999999999893e+00 6.830399999999999805e-01 -2.174529000000000156e+00 1.228293000000000079e+00 5.916360000000000507e-01 -1.169359999999999983e-01 -8.238050000000000095e-01 2.962199999999999903e-02 -1.202768999999999977e+00 2.039752000000000010e+00 -2.790484000000000187e+00 -1.257916999999999952e+00 1.757243000000000110e+00 -1.235382999999999898e+00 -2.191117999999999899e+00 -1.187934000000000045e+00 1.292600000000000138e-01 7.126190000000000024e-01 1.916539999999999910e-01 9.902859999999999996e-01 -4.447500000000000064e-02 -1.814756000000000036e+00 -1.768262000000000000e+00 -1.766108000000000011e+00 -2.195565999999999907e+00 2.389927000000000135e+00 2.918129999999999891e-01 9.396949999999999470e-01 -2.536554999999999893e+00 -6.636349999999999749e-01 -2.341117999999999810e+00 -2.448246999999999840e+00 2.464255999999999780e+00 -2.485984000000000194e+00 4.847675999999999874e+00 7.022610000000000241e-01 5.620870000000000033e-01 -2.490634000000000015e+00 2.227358000000000171e+00 9.726100000000000023e-02 -8.010089999999999710e-01 -4.212509999999999866e-01 3.029511999999999983e+00 8.750850000000000017e-01 -2.006152999999999853e+00 -1.640638999999999958e+00 -5.107850000000000446e-01 -1.596527000000000029e+00 5.180080000000000240e-01 -3.346400000000000041e+00 2.302073000000000036e+00 -5.739400999999999975e+00 -2.915437999999999974e+00 1.875008000000000008e+00 1.518691999999999931e+00 3.148206000000000060e+00 6.225730000000000430e-01 -2.456744000000000039e+00 4.813000000000000056e-01 2.257918000000000092e+00 -5.387920000000000487e-01 -1.155645000000000033e+00 -3.293999999999999706e-02 -5.856069999999999887e-01 -9.751290000000000235e-01 -2.715949999999999753e-01 -3.622949999999999782e-01 -9.341999999999999610e-03 4.948099999999999721e-02 1.195659000000000027e+00 -3.326089999999999880e-01 -1.408419999999999950e-01 1.736139999999999906e-01 1.925446999999999909e+00 -1.068565999999999905e+00 -2.113014000000000170e+00 -2.912293000000000021e+00 2.423958999999999975e+00 9.062280000000000335e-01 -1.498909999999999965e-01 5.329500000000000348e-01 -2.138930000000000220e+00 -1.867064999999999975e+00 -1.368659000000000070e+00 -2.139717000000000091e+00 -4.231130000000000169e-01 6.386730000000000462e-01 -3.859071999999999836e+00 -4.138430000000000164e-01 -6.532350000000000101e-01 6.797539999999999694e-01 -9.318330000000000224e-01 1.811959999999999960e-01 -6.703369999999999607e-01 1.546901999999999999e+00 -1.600589000000000039e+00 -8.990010000000000501e-01 -4.999600000000000155e-01 -2.255781999999999954e+00 1.667626999999999970e+00 1.013927999999999940e+00 1.337180000000000035e-01 -3.817185999999999968e+00 -8.256649999999999823e-01 -2.586789999999999923e-01 -2.440369000000000010e+00 1.800772999999999957e+00 2.424406999999999979e+00 7.943789999999999463e-01 -4.386111999999999789e+00 -2.083038999999999863e+00 2.713265999999999956e+00 3.906199999999999950e-02 4.611230000000000051e-01 4.215050000000000185e-01 -1.851409000000000082e+00 2.134367999999999821e+00 -4.868591000000000335e+00 5.258753999999999706e+00 1.152117999999999975e+00 -5.804230000000000222e-01 1.086700000000000027e-01 -2.645090000000000163e+00 3.883998000000000062e+00 -7.144310000000000382e-01 8.631180000000000518e-01 2.682880000000000265e-01 2.464281999999999861e+00 -3.440309999999999757e-01 6.391539999999999999e-01 1.072373000000000021e+00 -3.854152000000000022e+00 -9.204419999999999824e-01 4.267928000000000388e+00 2.958527000000000129e+00 -6.700299999999999312e-02 5.901619999999999644e-01 1.512672000000000017e+00 -7.931749999999999634e-01 -1.724933000000000050e+00 -1.059175999999999895e+00 3.951678999999999942e+00 -3.488094999999999946e+00 3.036980000000000235e-01 -1.858112999999999904e+00 2.383999999999999897e+00 1.105491000000000001e+00 -9.057490000000000263e-01 1.076637999999999984e+00 -1.592114999999999947e+00 -2.116476000000000024e+00 -2.352326000000000139e+00 3.043597999999999804e+00 -1.754906999999999995e+00 -3.139123999999999803e+00 -9.223999999999999561e-03 -4.010440000000000116e-01 1.746907999999999905e+00 -1.643000000000000016e-02 4.291400000000000076e-02 6.904069999999999929e-01 2.792379999999999862e-01 -9.383160000000000389e-01 -2.137083000000000066e+00 1.448356999999999895e+00 -9.412669999999999648e-01 1.519744999999999902e+00 1.100025000000000031e+00 1.398825999999999903e+00 1.145691999999999933e+00
-1.264809999999999990e+00 -2.291687000000000030e+00 3.112283999999999828e+00 -2.902369999999999894e+00 2.938406000000000073e+00 -2.725605999999999973e+00 9.020449999999999857e-01 2.291587999999999958e+00 -9.304999999999999383e-02 6.304570000000000451e-01 3.456278000000000183e+00 -9.339840000000000364e-01 -4.567321999999999882e+00 -2.931900000000000062e-01 8.596099999999999852e-01 4.597000000000000391e-03 9.718930000000000069e-01 -2.382165999999999784e+00 -9.539940000000000087e-01 -2.122500000000000081e-02 1.663899000000000017e+00 -3.507168000000000063e+00 2.317999999999999922e-02 -4.781375999999999848e+00 -2.343151000000000206e+00 2.241480999999999835e+00 3.387669999999999959e+00 -5.700060000000000127e-01 1.642401000000000000e+00 1.493700000000000062e-02 8.864140000000000352e-01 2.999338999999999977e+00 1.414557999999999982e+00 -1.279323999999999906e+00 -1.130570999999999993e+00 -2.722300000000000275e-01 -6.558966999999999992e+00 -4.004251000000000005e+00 -3.929062000000000054e+00 -2.587667000000000161e+00 -3.724750000000000005e-01 2.109224999999999905e+00 7.789500000000000313e-01 1.270566000000000084e+00 -9.832699999999999774e-01 1.357961999999999891e+00 1.974369999999999958e+00 1.677038999999999946e+00 -3.629392000000000174e+00 -3.142615000000000158e+00 1.202924000000000104e+00 4.033078999999999859e+00 -2.199813999999999936e+00 3.563292999999999822e+00 -7.665539999999999576e-01 9.077399999999999913e-01 2.541538000000000075e+00 -1.666754999999999987e+00 -1.309333999999999998e+00 -9.135299999999999532e-01 2.593598000000000070e+00 3.672460000000000169e-01 -2.462922999999999973e+00 2.654739000000000182e+00 -1.691996999999999973e+00 -4.199994000000000227e+00 4.974279999999999813e-01 5.665829999999999478e-01 5.950569999999999471e-01 -2.875704999999999956e+00 2.445024000000000086e+00 2.653090000000000170e-01 -5.605919999999999792e-01 -3.130707999999999824e+00 -1.679327999999999932e+00 2.393057000000000212e+00 -1.268062999999999940e+00 2.428160000000000096e+00 -1.653858999999999968e+00 -1.140433000000000030e+00 -8.106700000000000017e-01 -3.442760000000000264e-01 1.365561999999999943e+00 7.564600000000000490e-02 3.206185000000000063e+00 8.376529999999999809e-01 -2.139593000000000078e+00 2.935180000000000011e-01 1.355763000000000051e+00 3.858858999999999817e+00 -2.026231999999999811e+00 2.782172999999999785e+00 -1.206423000000000023e+00 -3.016843999999999859e+00 -1.272253000000000078e+00 -2.386842999999999826e+00 -3.310500000000000109e-01 -6.599610000000000198e-01 7.439800000000000579e-02 -1.082535999999999943e+00 -5.075899999999999856e-01 -2.489240000000000064e-01 -5.320129999999999582e-01 -3.595855999999999941e+00 8.617850000000000232e-01 2.427938999999999847e+00 1.022313999999999945e+00 9.132879999999999887e-01 1.709213000000000093e+00 9.266250000000000320e-01 3.099794999999999856e+00 1.154088000000000003e+00 -9.444369999999999710e-01 2.622510000000000119e-01 -2.002601999999999993e+00 3.919293999999999834e+00 1.228696000000000010e+00 2.255071000000000048e+00 3.232378999999999891e+00 -1.072278999999999982e+00 -1.630500000000000005e-02 -2.604149000000000047e+00 6.583440000000000403e-01 -1.665270999999999946e+00 -1.402811999999999948e+00 1.970270000000000077e-01 1.301387000000000072e+00 3.713099999999999734e-02 1.420036000000000076e+00 4.863850000000000118e-01 3.835658000000000012e+00 2.121653999999999929e+00 -3.889492000000000171e+00 1.584969000000000072e+00 -1.191060999999999925e+00 -1.134073000000000109e+00 -2.066449999999999954e-01 -1.986356999999999928e+00 1.234372999999999942e+00 -7.843300000000000272e-02 2.409575999999999940e+00 -7.037940000000000307e-01 2.148687999999999931e+00 -2.114867999999999970e+00 -2.368110000000000159e+00 6.295619999999999550e-01 -2.387849000000000110e+00 -2.103066000000000102e+00 -8.994999999999999524e-03 3.525659999999999905e-01 4.004969999999999919e-01 -3.024459999999999926e-01 -1.553627000000000091e+00 4.638117000000000267e+00 3.179886999999999908e+00 3.858932999999999947e+00 5.704029999999999934e-01 -1.117980999999999892e+00 -1.940798000000000023e+00 1.752559999999999896e+00 -6.261339000000000432e+00 -2.690600000000000214e-01 2.144417999999999935e+00 5.555069999999999730e-01 2.344269000000000158e+00 -1.727049999999999974e-01 1.417515999999999998e+00 9.119880000000000209e-01 -1.093204000000000065e+00 1.046445000000000070e+00 -2.012541000000000135e+00 -2.111577000000000037e+00 -7.450539999999999941e-01 -7.210630000000000095e-01 -4.793609999999999816e-01 5.268000000000000460e-01 2.086109999999999909e-01 9.529450000000000420e-01 -1.021669999999999939e-01 -1.772002000000000077e+00 7.918699999999999350e-02 1.502169999999999894e-01 4.096890000000000254e-01 -8.509400000000000297e-02 -1.995014999999999983e+00 -3.693389999999999729e-01 -1.331218999999999930e+00 -2.750757999999999814e+00 -1.035087000000000090e+00 7.191410000000000302e-01 2.990895000000000081e+00 5.001299999999999635e-01 1.636570999999999998e+00 1.348311999999999955e+00 -1.722788999999999904e+00 1.619785999999999948e+00 -1.755535999999999985e+00 -9.123510000000000231e-01 7.967299999999999383e-02 -1.447705000000000020e+00 2.041208999999999829e+00 -2.248410000000000131e-01 -1.648347999999999924e+00 1.513539999999999885e-01 1.235155999999999921e+00 -1.330297999999999981e+00 1.070232999999999990e+00 -2.959709999999999841e-01 -5.115690000000000515e-01 -6.296289999999999942e-01 -1.421170999999999962e+00 -1.642089999999999939e-01 -9.793840000000000323e-01 6.416420000000000456e-01 -1.692957999999999963e+00 5.231700000000000239e-01 4.739630000000000232e-01 2.259917000000000176e+00 8.011200000000000265e-02 -2.375865999999999811e+00 -2.386874999999999858e+00 -1.556532999999999944e+00 3.067428000000000043e+00 -2.241185999999999900e+00 9.141420000000000101e-01 1.344009999999999927e+00 1.996172000000000057e+00 -3.058953999999999951e+00 -8.087130000000000152e-01 1.370557999999999943e+00 -6.259329999999999616e-01 1.744232000000000005e+00 -9.574789999999999690e-01 -1.597026999999999974e+00 -7.228510000000000213e-01 1.593999999999999931e-02 3.103330000000000255e-01 1.032091000000000092e+00 4.829439999999999844e-01 -2.188785000000000203e+00 2.202761999999999887e+00 1.787258000000000013e+00 1.864662000000000042e+00 6.178989999999999760e-01 -1.216358000000000050e+00 -2.360196999999999878e+00 -6.921399999999999775e-01 -1.650733000000000006e+00 -2.477117999999999931e+00 -1.163321000000000049e+00 1.751681000000000044e+00 3.903537000000000035e+00 1.940623999999999905e+00 -4.763049999999999784e-01 7.178499999999999881e-01 3.743017000000000039e+00 1.011390000000000011e+00 1.573199999999999946e-02 5.683479999999999643e-01 1.339369999999999949e+00 -5.880549999999999944e-01 2.059350999999999932e+00 -2.779599999999999849e-01 -8.808179999999999898e-01 3.823855000000000004e+00 -1.363900000000000008e-02 6.405440000000000023e-01 1.694927999999999990e+00 2.467604000000000131e+00 8.784859999999999891e-01 2.154617000000000004e+00 -1.767188999999999899e+00 2.111780000000000046e-01 -7.789800000000000058e-01 -1.883718999999999921e+00 2.483553000000000122e+00 -8.183000000000000274e-01 -3.823840000000000017e-01 1.924743000000000093e+00 6.723350000000000160e-01 -1.835269999999999957e+00 -1.529480000000000006e-01 -9.314310000000000089e-01 -3.280305999999999944e+00 1.971537000000000095e+00
1.574910000000000032e+00 -3.013359999999999927e-01 -1.070410000000000084e+00 3.176413999999999849e+00 2.788510000000000155e-01 1.347582999999999975e+00 -5.855099999999999888e-02 -1.549359999999999904e-01 4.118278000000000105e+00 2.321543999999999830e+00 5.079498000000000069e+00 3.695902999999999938e+00 7.365669999999999717e-01 -1.869291999999999954e+00 3.010769999999999835e-01 -2.053665000000000074e+00 1.085601999999999956e+00 -2.907249000000000194e+00 1.563925999999999927e+00 -1.383418999999999954e+00 -2.947890000000000232e-01 2.919503000000000181e+00 -1.126506000000000007e+00 7.780200000000000449e-01 -2.465825000000000156e+00 2.719139999999999890e+00 2.527931999999999846e+00 -9.761899999999999744e-02 -1.177726000000000051e+00 -8.095109999999999806e-01 -1.087892999999999999e+00 1.612702000000000080e+00 -2.068960999999999828e+00 -3.171149999999999802e-01 -1.774712000000000067e+00 -1.313032999999999895e+00 -1.030038999999999927e+00 2.496675999999999895e+00 1.598025999999999947e+00 -2.105859999999999954e-01 -1.314551999999999943e+00 2.339539999999999953e-01 -1.130832000000000059e+00 -5.729509999999999881e-01 -1.495740000000000069e+00 1.042523000000000089e+00 2.297970000000000013e-01 1.070198999999999900e+00 -4.852069999999999994e-01 -2.125376000000000154e+00 4.083604000000000234e+00 3.744670999999999861e+00 2.422213000000000171e+00 -3.126116999999999813e+00 -2.059791000000000150e+00 -1.050780999999999965e+00 -6.410599999999999632e-01 -1.214790000000000036e+00 1.094160999999999939e+00 -9.443930000000000380e-01 3.062624000000000013e+00 8.161000000000000476e-01 6.026933999999999791e+00 2.381953999999999905e+00 -8.104440000000000532e-01 -1.157248000000000054e+00 -1.356864000000000070e+00 -2.109423000000000048e+00 -5.840119999999999756e-01 5.550019999999999953e-01 -1.961878999999999929e+00 1.337992999999999988e+00 -4.225853999999999999e+00 1.643130999999999897e+00 -1.358654999999999946e+00 -2.659743999999999886e+00 2.113125000000000142e+00 1.392284999999999995e+00 -2.626964000000000077e+00 -2.525133999999999990e+00 -2.568909999999999805e+00 8.884109999999999507e-01 1.748556999999999917e+00 4.202758000000000216e+00 -5.467164999999999608e+00 -4.188184999999999825e+00 -3.111050000000000093e+00 2.711628000000000149e+00 -1.804302000000000072e+00 6.796928000000000303e+00 -6.077770000000000117e-01 -3.203336999999999879e+00 -1.857064000000000048e+00 8.681269999999999820e-01 2.147974000000000050e+00 2.061790000000000012e-01 -2.404943999999999971e+00 2.523134000000000210e+00 1.806649999999999923e-01 -1.276491000000000042e+00 -7.644140000000000379e-01 -4.572999999999999843e-01 -1.344449000000000005e+00 -9.617329999999999490e-01 -1.901248999999999967e+00 1.932023999999999964e+00 3.782640999999999920e+00 3.461806000000000161e+00 1.736739999999999950e-01 -7.104200000000000514e-01 2.403639999999999943e-01 -6.673270000000000035e-01 -1.346565000000000012e+00 1.031139999999999973e-01 -2.483597000000000055e+00 1.438652000000000042e+00 -6.837410000000000432e-01 -2.852981999999999907e+00 -7.437420000000000142e-01 -1.027741000000000016e+00 -2.280256000000000061e+00 2.922040000000000193e-01 1.306762999999999897e+00 -2.096900000000000153e-02 -7.202309999999999546e-01 -2.693809999999999816e-01 -1.620300999999999991e+00 -2.549936999999999898e+00 1.850343999999999989e+00 -8.992830000000000545e-01 -1.471578999999999970e+00 -8.828000000000000291e-01 1.033287999999999984e+00 -1.393319999999999892e+00 1.275560000000000027e+00 -3.676900000000000307e-02 5.083480000000000221e-01 -1.431834000000000051e+00 6.890450000000000186e-01 2.464478000000000169e+00 -2.474270000000000080e-01 8.831259999999999666e-01 -1.030194000000000054e+00 -1.385761000000000021e+00 1.544529999999999959e+00 1.605933999999999973e+00 -1.680452999999999975e+00 -2.750455000000000094e+00 -2.648162000000000127e+00 2.646957000000000004e+00 7.512630000000000141e-01 -1.415558000000000094e+00 -1.663232999999999961e+00 1.852198000000000011e+00 -7.661569999999999769e-01 6.116300000000000070e-01 2.503864999999999785e+00 1.770309999999999939e-01 -1.766080000000000094e+00 4.807589999999999919e-01 1.626108000000000109e+00 -1.526899999999999924e+00 1.294135999999999953e+00 1.704206000000000110e+00 -9.295390000000000041e-01 1.328299999999999967e-02 -4.442070000000000185e-01 -1.368783000000000083e+00 1.235246999999999984e+00 1.443575000000000053e+00 -1.289425000000000043e+00 -1.062921000000000005e+00 2.181944000000000106e+00 5.762659999999999449e-01 1.114063999999999943e+00 -7.320020000000000415e-01 7.658599999999999852e-01 5.782549999999999635e-01 3.747670000000000168e-01 -2.783961000000000130e+00 -1.934420000000000028e-01 1.118684999999999929e+00 1.866808999999999941e+00 2.587899999999999923e-02 -7.681829999999999492e-01 4.875499999999999973e-02 1.345974999999999921e+00 -1.292062999999999962e+00 4.916719999999999979e-01 6.877060000000000395e-01 -1.414617000000000013e+00 1.008686999999999889e+00 -1.050949999999999940e-01 -3.978000000000000286e-02 5.460582999999999743e+00 1.405577000000000076e+00 -3.089459999999999984e-01 -1.668959999999999888e-01 -1.781379999999999963e+00 2.229584000000000010e+00 7.086519999999999486e-01 -4.318389999999999729e-01 -2.431240000000000068e-01 4.977100000000000274e-02 2.635159999999999725e-01 1.902212999999999932e+00 -1.713270000000000071e+00 -2.959550000000000125e+00 3.019916999999999963e+00 -4.165231000000000350e+00 -1.250104000000000104e+00 -1.512933000000000083e+00 2.385696999999999957e+00 8.473589999999999733e-01 -5.254170000000000229e-01 6.616600000000000259e-02 1.665900000000000020e-02 9.685329999999999773e-01 4.512718999999999703e+00 1.688614000000000059e+00 8.789200000000000346e-01 -7.119119999999999893e-01 -5.228890000000000482e-01 2.759905999999999970e+00 2.020185999999999815e+00 -1.955162999999999984e+00 -2.628508000000000067e+00 -2.178630000000000011e-01 7.336070000000000091e-01 -1.088235000000000063e+00 -1.190730000000000066e+00 -2.570783000000000040e+00 -9.424019999999999619e-01 -2.538546000000000191e+00 -5.947959999999999914e-01 -1.163254999999999928e+00 -1.226232999999999906e+00 1.643051999999999957e+00 -1.103766000000000025e+00 -5.192860000000000253e-01 -7.201009999999999911e-01 -7.211809999999999610e-01 -6.259230000000000071e-01 3.508582000000000090e+00 8.210100000000000176e-01 -1.070006000000000013e+00 3.293671999999999933e+00 -9.019570000000000087e-01 -3.620038999999999785e+00 1.133802999999999894e+00 3.122614000000000001e+00 -3.312164999999999804e+00 2.026438999999999879e+00 8.117299999999999516e-01 -9.237100000000000311e-01 -2.132334000000000174e+00 -8.738300000000000234e-02 3.401429999999999954e+00 5.380439999999999667e-01 1.582560000000000078e-01 2.223149999999999959e+00 -1.645167000000000046e+00 -1.451330000000000120e-01 -2.321117999999999792e+00 -1.097434999999999938e+00 -2.276473000000000191e+00 1.220026999999999973e+00 3.314261000000000124e+00 -1.045128000000000057e+00 7.855079999999999840e-01 -1.318265999999999938e+00 5.475999999999999757e-01 -1.900670000000000137e-01 1.261913999999999980e+00 -1.124499999999999979e-02 -1.033735999999999988e+00 2.705287999999999915e+00 2.424253999999999909e+00 -4.253089999999999926e-01 -7.908650000000000402e-01 -1.381323999999999996e+00 -7.993829999999999547e-01 -1.140271000000000035e+00 3.797920000000000185e-01 -5.611563000000000301e+00