1.018843254899999984e+01 0.000000000000000000e+00 0.000000000000000000e+00 2.922291999999999945e-03 1.028903864900000009e+01 0.000000000000000000e+00 3.745300000000000208e-05 -5.050823999999999765e-03 1.063453146199999999e+01
1.013312285499999987e+01 0.000000000000000000e+00 0.000000000000000000e+00 2.906427999999999963e-03 1.023318279699999955e+01 0.000000000000000000e+00 3.724900000000000200e-05 -5.023404999999999884e-03 1.057680004200000035e+01
1.049318945099999922e+01 0.000000000000000000e+00 0.000000000000000000e+00 -1.697076499999999877e-02 1.061535584800000009e+01 0.000000000000000000e+00 -3.130047999999999858e-03 -1.920308199999999979e-02 1.095171256899999968e+01
1.054853898200000017e+01 0.000000000000000000e+00 0.000000000000000000e+00 -1.706028299999999900e-02 1.067134978200000006e+01 0.000000000000000000e+00 -3.146559000000000161e-03 -1.930437399999999915e-02 1.100948071900000080e+01
1.052051981500000011e+01 0.000000000000000000e+00 0.000000000000000000e+00 3.017541999999999794e-03 1.062440512400000081e+01 0.000000000000000000e+00 3.867300000000000056e-05 -5.215453000000000103e-03 1.098115911700000069e+01
1.047562630200000022e+01 0.000000000000000000e+00 0.000000000000000000e+00 -1.694236000000000006e-02 1.059758822100000053e+01 0.000000000000000000e+00 -3.124809000000000093e-03 -1.917094000000000090e-02 1.093338195900000009e+01
1.047978404899999916e+01 0.000000000000000000e+00 0.000000000000000000e+00 -1.694908499999999915e-02 1.060179437400000069e+01 0.000000000000000000e+00 -3.126050000000000009e-03 -1.917854899999999960e-02 1.093772138799999993e+01
1.052974128299999990e+01 0.000000000000000000e+00 0.000000000000000000e+00 -1.702988100000000019e-02 1.065233323200000015e+01 0.000000000000000000e+00 -3.140950999999999899e-03 -1.926997299999999927e-02 1.098986161300000042e+01
1.026261269199999937e+01 0.000000000000000000e+00 0.000000000000000000e+00 2.943568000000000139e-03 1.036395128700000079e+01 0.000000000000000000e+00 3.772500000000000218e-05 -5.087597999999999600e-03 1.071195957199999960e+01
1.037476294300000035e+01 0.000000000000000000e+00 0.000000000000000000e+00 -1.677923300000000104e-02 1.049555056500000028e+01 0.000000000000000000e+00 -3.094721999999999838e-03 -1.898635499999999990e-02 1.082811115199999996e+01
1.037825288800000045e+01 0.000000000000000000e+00 0.000000000000000000e+00 -1.678487700000000013e-02 1.049908114199999964e+01 0.000000000000000000e+00 -3.095763999999999981e-03 -1.899274199999999996e-02 1.083175359800000059e+01
1.041702757400000046e+01 0.000000000000000000e+00 0.000000000000000000e+00 2.987857999999999920e-03 1.051989094500000022e+01 0.000000000000000000e+00 3.829300000000000081e-05 -5.164148000000000349e-03 1.087313548500000060e+01
1.029067362199999991e+01 0.000000000000000000e+00 0.000000000000000000e+00 2.951617000000000129e-03 1.039228930600000034e+01 0.000000000000000000e+00 3.782799999999999764e-05 -5.101508999999999731e-03 1.074124914499999939e+01
1.047772748799999931e+01 0.000000000000000000e+00 0.000000000000000000e+00 3.005269000000000083e-03 1.058119024300000000e+01 0.000000000000000000e+00 3.851600000000000190e-05 -5.194240000000000142e-03 1.093649313499999920e+01
1.024089185799999946e+01 0.000000000000000000e+00 0.000000000000000000e+00 2.937337999999999841e-03 1.034201597000000028e+01 0.000000000000000000e+00 3.764500000000000295e-05 -5.076830000000000058e-03 1.068928769500000087e+01
1.053952053199999916e+01 0.000000000000000000e+00 0.000000000000000000e+00 -1.704569699999999854e-02 1.066222633599999980e+01 0.000000000000000000e+00 -3.143869000000000091e-03 -1.928786999999999863e-02 1.100006818800000019e+01
1.058728566299999940e+01 0.000000000000000000e+00 0.000000000000000000e+00 3.036693000000000031e-03 1.069183025499999928e+01 0.000000000000000000e+00 3.891899999999999787e-05 -5.248552000000000078e-03 1.105084829800000001e+01
1.000666850400000030e+01 0.000000000000000000e+00 0.000000000000000000e+00 -1.618390899999999979e-02 1.012317060700000049e+01 0.000000000000000000e+00 -2.984922000000000096e-03 -1.831272299999999950e-02 1.044393201299999951e+01
1.024541854099999938e+01 0.000000000000000000e+00 0.000000000000000000e+00 2.938637000000000020e-03 1.034658735200000024e+01 0.000000000000000000e+00 3.766199999999999957e-05 -5.079074000000000262e-03 1.069401257800000060e+01
1.007712106099999971e+01 0.000000000000000000e+00 0.000000000000000000e+00 2.890365000000000208e-03 1.017662801100000003e+01 0.000000000000000000e+00 3.704299999999999753e-05 -4.995641999999999791e-03 1.051834621899999966e+01
1.044125602899999983e+01 0.000000000000000000e+00 0.000000000000000000e+00 -1.688677300000000076e-02 1.056281779300000068e+01 0.000000000000000000e+00 -3.114557000000000003e-03 -1.910804099999999922e-02 1.089750980100000000e+01
1.042696338300000036e+01 0.000000000000000000e+00 0.000000000000000000e+00 -1.686365700000000065e-02 1.054835874599999990e+01 0.000000000000000000e+00 -3.110293999999999993e-03 -1.908188499999999982e-02 1.088259260599999934e+01
1.018661120800000042e+01 0.000000000000000000e+00 0.000000000000000000e+00 -1.647493300000000063e-02 1.030520828300000069e+01 0.000000000000000000e+00 -3.038597999999999993e-03 -1.864202800000000146e-02 1.063173771099999954e+01
1.051738133699999977e+01 0.000000000000000000e+00 0.000000000000000000e+00 -1.700989099999999921e-02 1.063982938600000061e+01 0.000000000000000000e+00 -3.137265000000000192e-03 -1.924735400000000124e-02 1.097696157200000044e+01
1.032976572699999984e+01 0.000000000000000000e+00 0.000000000000000000e+00 2.962829000000000157e-03 1.043176742700000048e+01 0.000000000000000000e+00 3.797200000000000168e-05 -5.120888999999999996e-03 1.078205289099999931e+01
1.014505156499999927e+01 0.000000000000000000e+00 0.000000000000000000e+00 -1.640771800000000169e-02 1.026316478500000073e+01 0.000000000000000000e+00 -3.026201000000000065e-03 -1.856597100000000056e-02 1.058836202800000059e+01
1.042404767800000087e+01 0.000000000000000000e+00 0.000000000000000000e+00 2.989872000000000189e-03 1.052698037000000042e+01 0.000000000000000000e+00 3.831899999999999684e-05 -5.167627999999999631e-03 1.088046296299999938e+01
1.060190992399999921e+01 0.000000000000000000e+00 0.000000000000000000e+00 3.040886999999999930e-03 1.070659892299999960e+01 0.000000000000000000e+00 3.897199999999999888e-05 -5.255802000000000390e-03 1.106611287900000029e+01
1.043243566900000019e+01 0.000000000000000000e+00 0.000000000000000000e+00 -1.687250800000000134e-02 1.055389474300000074e+01 0.000000000000000000e+00 -3.111926000000000102e-03 -1.909189899999999898e-02 1.088830401599999931e+01
1.023479716099999948e+01 0.000000000000000000e+00 0.000000000000000000e+00 2.935590000000000074e-03 1.033586108999999986e+01 0.000000000000000000e+00 3.762300000000000214e-05 -5.073809000000000305e-03 1.068292614099999938e+01
1.044805009300000087e+01 0.000000000000000000e+00 0.000000000000000000e+00 -1.689776100000000073e-02 1.056969095700000061e+01 0.000000000000000000e+00 -3.116583999999999934e-03 -1.912047399999999842e-02 1.090460074699999993e+01
1.032830848899999943e+01 0.000000000000000000e+00 0.000000000000000000e+00 -1.670410099999999898e-02 1.044855526799999978e+01 0.000000000000000000e+00 -3.080864999999999906e-03 -1.890134099999999859e-02 1.077962676799999997e+01
1.051449041599999923e+01 0.000000000000000000e+00 0.000000000000000000e+00 3.015813000000000001e-03 1.061831618799999966e+01 0.000000000000000000e+00 3.865099999999999976e-05 -5.212463999999999986e-03 1.097486572200000055e+01
1.044890767599999926e+01 0.000000000000000000e+00 0.000000000000000000e+00 2.997001999999999913e-03 1.055208584899999913e+01 0.000000000000000000e+00 3.840999999999999986e-05 -5.179951999999999820e-03 1.090641145200000039e+01
1.036894007299999920e+01 0.000000000000000000e+00 0.000000000000000000e+00 -1.676981500000000042e-02 1.048965990299999973e+01 0.000000000000000000e+00 -3.092985999999999826e-03 -1.897569899999999865e-02 1.082203383899999949e+01
1.029976255300000076e+01 0.000000000000000000e+00 0.000000000000000000e+00 -1.665793399999999924e-02 1.041967698800000086e+01 0.000000000000000000e+00 -3.072350000000000168e-03 -1.884910000000000058e-02 1.074983345499999920e+01
1.033843340800000021e+01 0.000000000000000000e+00 0.000000000000000000e+00 -1.672047700000000095e-02 1.045879806599999995e+01 0.000000000000000000e+00 -3.083886000000000092e-03 -1.891986999999999836e-02 1.079019411800000050e+01
1.049650135699999964e+01 0.000000000000000000e+00 0.000000000000000000e+00 -1.697612199999999974e-02 1.061870631200000048e+01 0.000000000000000000e+00 -3.131035999999999802e-03 -1.920914300000000144e-02 1.095516919599999994e+01
1.044223539799999934e+01 0.000000000000000000e+00 0.000000000000000000e+00 -1.688835699999999967e-02 1.056380856500000043e+01 0.000000000000000000e+00 -3.114848999999999830e-03 -1.910983299999999968e-02 1.089853196600000018e+01
1.047974284400000045e+01 0.000000000000000000e+00 0.000000000000000000e+00 3.005846999999999859e-03 1.058322549899999920e+01 0.000000000000000000e+00 3.852299999999999692e-05 -5.195238999999999933e-03 1.093859673300000068e+01
1.049666355699999976e+01 0.000000000000000000e+00 0.000000000000000000e+00 3.010699999999999835e-03 1.060031329699999958e+01 0.000000000000000000e+00 3.858599999999999953e-05 -5.203626999999999732e-03 1.095625831699999964e+01
1.039442375900000037e+01 0.000000000000000000e+00 0.000000000000000000e+00 -1.681103000000000111e-02 1.051544028100000006e+01 0.000000000000000000e+00 -3.100587000000000135e-03 -1.902233500000000133e-02 1.084863109099999967e+01
1.039160723800000063e+01 0.000000000000000000e+00 0.000000000000000000e+00 -1.680647500000000127e-02 1.051259096899999967e+01 0.000000000000000000e+00 -3.099746999999999919e-03 -1.901718100000000106e-02 1.084569149600000060e+01
1.028872036399999956e+01 0.000000000000000000e+00 0.000000000000000000e+00 -1.664007500000000070e-02 1.040850623999999947e+01 0.000000000000000000e+00 -3.069057000000000035e-03 -1.882889299999999932e-02 1.073830875200000001e+01
1.041836890699999962e+01 0.000000000000000000e+00 0.000000000000000000e+00 -1.684975699999999993e-02 1.053966420999999976e+01 0.000000000000000000e+00 -3.107729999999999954e-03 -1.906615600000000077e-02 1.087362257600000071e+01
1.040335285599999970e+01 0.000000000000000000e+00 0.000000000000000000e+00 2.983935999999999967e-03 1.050608119600000023e+01 0.000000000000000000e+00 3.824299999999999960e-05 -5.157369000000000189e-03 1.085886202200000028e+01
1.051147442100000085e+01 0.000000000000000000e+00 0.000000000000000000e+00 -1.700033800000000025e-02 1.063385369999999952e+01 0.000000000000000000e+00 -3.135502999999999988e-03 -1.923654400000000125e-02 1.097079654100000035e+01
1.037658041100000084e+01 0.000000000000000000e+00 0.000000000000000000e+00 -1.678217200000000145e-02 1.049738919300000006e+01 0.000000000000000000e+00 -3.095264999999999822e-03 -1.898968100000000131e-02 1.083000803900000086e+01
1.029553242399999924e+01 0.000000000000000000e+00 0.000000000000000000e+00 -1.665109199999999928e-02 1.041539760899999933e+01 0.000000000000000000e+00 -3.071088999999999937e-03 -1.884135899999999850e-02 1.074541847999999966e+01
1.029886973099999992e+01 0.000000000000000000e+00 0.000000000000000000e+00 2.953967999999999958e-03 1.040056634799999991e+01 0.000000000000000000e+00 3.785800000000000244e-05 -5.105572000000000062e-03 1.074980411900000021e+01
1.055683550800000070e+01 0.000000000000000000e+00 0.000000000000000000e+00 -1.707370100000000016e-02 1.067974290000000082e+01 0.000000000000000000e+00 -3.149034000000000208e-03 -1.931955700000000109e-02 1.101813978100000035e+01
1.047153909700000085e+01 0.000000000000000000e+00 0.000000000000000000e+00 3.003494000000000216e-03 1.057494074499999925e+01 0.000000000000000000e+00 3.849299999999999890e-05 -5.191171999999999974e-03 1.093003378599999920e+01
1.056139635499999940e+01 0.000000000000000000e+00 0.000000000000000000e+00 3.029266999999999984e-03 1.066568530199999998e+01 0.000000000000000000e+00 3.882399999999999962e-05 -5.235718000000000316e-03 1.102382543000000048e+01
1.045033663100000076e+01 0.000000000000000000e+00 0.000000000000000000e+00 -1.690145900000000062e-02 1.057200411600000045e+01 0.000000000000000000e+00 -3.117266000000000047e-03 -1.912465899999999872e-02 1.090698719999999966e+01
1.010944297700000050e+01 0.000000000000000000e+00 0.000000000000000000e+00 -1.635012699999999902e-02 1.022714162599999987e+01 0.000000000000000000e+00 -3.015579000000000003e-03 -1.850080600000000158e-02 1.055119744399999959e+01
1.029723079999999946e+01 0.000000000000000000e+00 0.000000000000000000e+00 2.953498000000000148e-03 1.039891123299999975e+01 0.000000000000000000e+00 3.785200000000000283e-05 -5.104759999999999853e-03 1.074809342800000067e+01
1.048289250500000058e+01 0.000000000000000000e+00 0.000000000000000000e+00 3.006749999999999874e-03 1.058640626300000065e+01 0.000000000000000000e+00 3.853500000000000290e-05 -5.196799999999999684e-03 1.094188430200000006e+01
1.053601391199999959e+01 0.000000000000000000e+00 0.000000000000000000e+00 3.021986999999999850e-03 1.064005221899999931e+01 0.000000000000000000e+00 3.872999999999999680e-05 -5.223133999999999937e-03 1.099733162100000072e+01
1.034813643100000036e+01 0.000000000000000000e+00 0.000000000000000000e+00 -1.673616899999999866e-02 1.046861405499999975e+01 0.000000000000000000e+00 -3.086779999999999906e-03 -1.893762699999999854e-02 1.080032113600000088e+01
1.048232521799999972e+01 0.000000000000000000e+00 0.000000000000000000e+00 3.006586999999999801e-03 1.058583337399999991e+01 0.000000000000000000e+00 3.853299999999999851e-05 -5.196519000000000138e-03 1.094129217599999926e+01
1.038270966900000047e+01 0.000000000000000000e+00 0.000000000000000000e+00 -1.679208500000000173e-02 1.050358981099999944e+01 0.000000000000000000e+00 -3.097092999999999981e-03 -1.900089799999999871e-02 1.083640512800000089e+01
1.050552422700000044e+01 0.000000000000000000e+00 0.000000000000000000e+00 3.013240999999999836e-03 1.060926146199999920e+01 0.000000000000000000e+00 3.861800000000000193e-05 -5.208019000000000363e-03 1.096550694899999989e+01
1.035371508899999959e+01 0.000000000000000000e+00 0.000000000000000000e+00 -1.674519199999999902e-02 1.047425766299999950e+01 0.000000000000000000e+00 -3.088444000000000085e-03 -1.894783599999999915e-02 1.080614356599999937e+01
1.038343659200000069e+01 0.000000000000000000e+00 0.000000000000000000e+00 2.978223999999999802e-03 1.048596826800000059e+01 0.000000000000000000e+00 3.816899999999999997e-05 -5.147495999999999669e-03 1.083807372699999938e+01
1.033055947499999938e+01 0.000000000000000000e+00 0.000000000000000000e+00 2.963056999999999844e-03 1.043256901300000017e+01 0.000000000000000000e+00 3.797500000000000148e-05 -5.121281999999999571e-03 1.078288139300000026e+01
1.031698741800000008e+01 0.000000000000000000e+00 0.000000000000000000e+00 -1.668579200000000137e-02 1.043710239099999981e+01 0.000000000000000000e+00 -3.077488000000000185e-03 -1.888062299999999916e-02 1.076781099699999977e+01
1.019031720199999924e+01 0.000000000000000000e+00 0.000000000000000000e+00 2.922832000000000208e-03 1.029094191199999919e+01 0.000000000000000000e+00 3.745900000000000168e-05 -5.051757999999999943e-03 1.063649863500000059e+01
1.003456662500000007e+01 0.000000000000000000e+00 0.000000000000000000e+00 -1.622902899999999898e-02 1.015139352899999992e+01 0.000000000000000000e+00 -2.993243999999999939e-03 -1.836377800000000074e-02 1.047304920300000042e+01
1.053670769900000082e+01 0.000000000000000000e+00 0.000000000000000000e+00 -1.704114799999999902e-02 1.065938075500000082e+01 0.000000000000000000e+00 -3.143030000000000216e-03 -1.928272199999999867e-02 1.099713244299999992e+01
1.031312420899999971e+01 0.000000000000000000e+00 0.000000000000000000e+00 -1.667954400000000101e-02 1.043319420599999958e+01 0.000000000000000000e+00 -3.076335999999999828e-03 -1.887355300000000125e-02 1.076377897799999950e+01
1.045716766199999981e+01 0.000000000000000000e+00 0.000000000000000000e+00 -1.691250700000000023e-02 1.057891467700000021e+01 0.000000000000000000e+00 -3.119302999999999920e-03 -1.913716000000000028e-02 1.091411672799999977e+01
1.031980161599999946e+01 0.000000000000000000e+00 0.000000000000000000e+00 -1.669034299999999985e-02 1.043994935399999946e+01 0.000000000000000000e+00 -3.078327999999999967e-03 -1.888577300000000153e-02 1.077074816800000079e+01
1.006340579799999979e+01 0.000000000000000000e+00 0.000000000000000000e+00 2.886431000000000066e-03 1.016277731599999967e+01 0.000000000000000000e+00 3.699300000000000309e-05 -4.988842999999999750e-03 1.050403043500000067e+01
1.047313115400000072e+01 0.000000000000000000e+00 0.000000000000000000e+00 -1.693832500000000060e-02 1.059506402300000083e+01 0.000000000000000000e+00 -3.124065000000000088e-03 -1.916637399999999991e-02 1.093077777999999967e+01
1.040776736699999994e+01 0.000000000000000000e+00 0.000000000000000000e+00 -1.683261100000000079e-02 1.052893924199999987e+01 0.000000000000000000e+00 -3.104566999999999917e-03 -1.904675499999999855e-02 1.086255777799999933e+01
1.006264660899999974e+01 0.000000000000000000e+00 0.000000000000000000e+00 2.886212999999999886e-03 1.016201063099999935e+01 0.000000000000000000e+00 3.699000000000000329e-05 -4.988466999999999901e-03 1.050323800500000004e+01
1.030927957499999970e+01 0.000000000000000000e+00 0.000000000000000000e+00 2.956953999999999919e-03 1.041107898399999954e+01 0.000000000000000000e+00 3.789699999999999986e-05 -5.110733000000000116e-03 1.076066975600000042e+01
1.026817241400000036e+01 0.000000000000000000e+00 0.000000000000000000e+00 2.945163000000000208e-03 1.036956590800000022e+01 0.000000000000000000e+00 3.774600000000000080e-05 -5.090354000000000059e-03 1.071776272500000005e+01
1.039813415000000063e+01 0.000000000000000000e+00 0.000000000000000000e+00 2.982438999999999923e-03 1.050081095700000056e+01 0.000000000000000000e+00 3.822300000000000318e-05 -5.154782000000000114e-03 1.085341481500000071e+01
1.054705191500000083e+01 0.000000000000000000e+00 0.000000000000000000e+00 3.025152000000000136e-03 1.065119921700000027e+01 0.000000000000000000e+00 3.877099999999999861e-05 -5.228606000000000226e-03 1.100885292200000087e+01
1.026222592300000080e+01 0.000000000000000000e+00 0.000000000000000000e+00 2.943457000000000018e-03 1.036356069900000065e+01 0.000000000000000000e+00 3.772399999999999999e-05 -5.087407000000000387e-03 1.071155586799999959e+01
1.046634755200000022e+01 0.000000000000000000e+00 0.000000000000000000e+00 -1.692735399999999862e-02 1.058820144300000088e+01 0.000000000000000000e+00 -3.122041999999999786e-03 -1.915396000000000112e-02 1.092369775300000079e+01
1.025957553199999950e+01 0.000000000000000000e+00 0.000000000000000000e+00 -1.659293900000000099e-02 1.037902209099999951e+01 0.000000000000000000e+00 -3.060362999999999972e-03 -1.877555599999999880e-02 1.070789037199999960e+01
1.039764056399999959e+01 0.000000000000000000e+00 0.000000000000000000e+00 -1.681623299999999988e-02 1.051869453700000001e+01 0.000000000000000000e+00 -3.101547000000000071e-03 -1.902822200000000089e-02 1.085198846099999948e+01
1.061678489400000025e+01 0.000000000000000000e+00 0.000000000000000000e+00 3.045154000000000003e-03 1.072162077800000013e+01 0.000000000000000000e+00 3.902699999999999751e-05 -5.263175999999999619e-03 1.108163914800000072e+01
1.038843706299999958e+01 0.000000000000000000e+00 0.000000000000000000e+00 2.979658000000000046e-03 1.049101811599999934e+01 0.000000000000000000e+00 3.818800000000000097e-05 -5.149975000000000212e-03 1.084329314300000036e+01
1.043365543700000053e+01 0.000000000000000000e+00 0.000000000000000000e+00 2.992628000000000215e-03 1.053668300100000010e+01 0.000000000000000000e+00 3.835399999999999904e-05 -5.172391000000000141e-03 1.089049139599999982e+01
1.044732076600000070e+01 0.000000000000000000e+00 0.000000000000000000e+00 2.996547000000000013e-03 1.055048326800000069e+01 0.000000000000000000e+00 3.840400000000000026e-05 -5.179165999999999805e-03 1.090475505899999931e+01
1.031148680699999964e+01 0.000000000000000000e+00 0.000000000000000000e+00 -1.667689500000000061e-02 1.043153774099999964e+01 0.000000000000000000e+00 -3.075847999999999950e-03 -1.887055600000000014e-02 1.076207002599999996e+01
1.044020820999999977e+01 0.000000000000000000e+00 0.000000000000000000e+00 2.994506999999999985e-03 1.054330047899999911e+01 0.000000000000000000e+00 3.837799999999999746e-05 -5.175639999999999581e-03 1.089733108100000081e+01
1.059294373400000033e+01 0.000000000000000000e+00 0.000000000000000000e+00 -1.713209900000000133e-02 1.071627151400000066e+01 0.000000000000000000e+00 -3.159803999999999998e-03 -1.938563700000000070e-02 1.105582583500000027e+01
1.038961471500000044e+01 0.000000000000000000e+00 0.000000000000000000e+00 2.979995999999999947e-03 1.049220739699999960e+01 0.000000000000000000e+00 3.819200000000000296e-05 -5.150558000000000393e-03 1.084452235900000083e+01
1.031339976699999994e+01 0.000000000000000000e+00 0.000000000000000000e+00 -1.667998899999999923e-02 1.043347297200000057e+01 0.000000000000000000e+00 -3.076418000000000035e-03 -1.887405699999999964e-02 1.076406657699999947e+01
1.026358807299999931e+01 0.000000000000000000e+00 0.000000000000000000e+00 2.943848000000000211e-03 1.036493629900000002e+01 0.000000000000000000e+00 3.772899999999999740e-05 -5.088081999999999848e-03 1.071297765899999987e+01
1.044006844399999956e+01 0.000000000000000000e+00 0.000000000000000000e+00 2.994466999999999789e-03 1.054315933300000019e+01 0.000000000000000000e+00 3.837799999999999746e-05 -5.175569999999999997e-03 1.089718519600000057e+01
1.050166176399999962e+01 0.000000000000000000e+00 0.000000000000000000e+00 -1.698446799999999909e-02 1.062392679899999948e+01 0.000000000000000000e+00 -3.132576000000000197e-03 -1.921858699999999878e-02 1.096055509800000038e+01
1.032574023499999960e+01 0.000000000000000000e+00 0.000000000000000000e+00 -1.669994799999999918e-02 1.044595711300000040e+01 0.000000000000000000e+00 -3.080099000000000205e-03 -1.889664099999999874e-02 1.077694628799999954e+01
1.023815128200000046e+01 0.000000000000000000e+00 0.000000000000000000e+00 2.936551999999999826e-03 1.033924833200000037e+01 0.000000000000000000e+00 3.763500000000000135e-05 -5.075472000000000143e-03 1.068642712299999964e+01
1.034361126199999958e+01 0.000000000000000000e+00 0.000000000000000000e+00 2.966800999999999813e-03 1.044574968100000056e+01 0.000000000000000000e+00 3.802299999999999831e-05 -5.127752999999999652e-03 1.079650465199999942e+01
1.058866726699999994e+01 0.000000000000000000e+00 0.000000000000000000e+00 -1.712518299999999868e-02 1.071194525900000016e+01 0.000000000000000000e+00 -3.158529000000000198e-03 -1.937781100000000173e-02 1.105136249899999967e+01
1.027784922200000040e+01 0.000000000000000000e+00 0.000000000000000000e+00 2.947939000000000115e-03 1.037933827099999995e+01 0.000000000000000000e+00 3.778100000000000300e-05 -5.095152000000000361e-03 1.072786323000000053e+01
1.054286499200000016e+01 0.000000000000000000e+00 0.000000000000000000e+00 3.023951999999999890e-03 1.064697095000000004e+01 0.000000000000000000e+00 3.875499999999999740e-05 -5.226531000000000406e-03 1.100448267500000021e+01
1.035165637200000077e+01 0.000000000000000000e+00 0.000000000000000000e+00 2.969107999999999817e-03 1.045387423300000052e+01 0.000000000000000000e+00 3.805300000000000311e-05 -5.131741000000000427e-03 1.080490201499999969e+01
1.037854994499999961e+01 0.000000000000000000e+00 0.000000000000000000e+00 2.976822000000000062e-03 1.048103336700000021e+01 0.000000000000000000e+00 3.815100000000000115e-05 -5.145073000000000008e-03 1.083297311900000004e+01
1.021835678000000058e+01 0.000000000000000000e+00 0.000000000000000000e+00 -1.652627499999999999e-02 1.033732345199999969e+01 0.000000000000000000e+00 -3.048068000000000131e-03 -1.870012399999999853e-02 1.066487047699999913e+01
1.054129819899999987e+01 0.000000000000000000e+00 0.000000000000000000e+00 3.023501999999999960e-03 1.064538868600000043e+01 0.000000000000000000e+00 3.874999999999999999e-05 -5.225753999999999989e-03 1.100284727999999923e+01
1.047803003299999958e+01 0.000000000000000000e+00 0.000000000000000000e+00 -1.694624800000000056e-02 1.060001993700000078e+01 0.000000000000000000e+00 -3.125525999999999999e-03 -1.917533899999999958e-02 1.093589072600000023e+01
1.013453831700000052e+01 0.000000000000000000e+00 0.000000000000000000e+00 -1.639071400000000067e-02 1.025252913699999979e+01 0.000000000000000000e+00 -3.023065000000000127e-03 -1.854673199999999980e-02 1.057738937999999962e+01
1.035715244999999918e+01 0.000000000000000000e+00 0.000000000000000000e+00 -1.675075100000000122e-02 1.047773504299999914e+01 0.000000000000000000e+00 -3.089469000000000069e-03 -1.895412700000000117e-02 1.080973112999999941e+01
1.032166167799999990e+01 0.000000000000000000e+00 0.000000000000000000e+00 2.960504999999999994e-03 1.042358335399999980e+01 0.000000000000000000e+00 3.794199999999999689e-05 -5.116871000000000266e-03 1.077359400799999989e+01
1.034207109599999974e+01 0.000000000000000000e+00 0.000000000000000000e+00 -1.672635999999999915e-02 1.046247810500000064e+01 0.000000000000000000e+00 -3.084971000000000154e-03 -1.892652699999999855e-02 1.079399076199999996e+01
1.027083011000000035e+01 0.000000000000000000e+00 0.000000000000000000e+00 -1.661114099999999941e-02 1.039040770000000080e+01 0.000000000000000000e+00 -3.063719999999999812e-03 -1.879615299999999947e-02 1.071963674400000066e+01
1.045238899699999990e+01 0.000000000000000000e+00 0.000000000000000000e+00 -1.690477799999999878e-02 1.057408037699999959e+01 0.000000000000000000e+00 -3.117878000000000142e-03 -1.912841499999999931e-02 1.090912924799999928e+01
1.034160015299999991e+01 0.000000000000000000e+00 0.000000000000000000e+00 2.966223999999999944e-03 1.044371871300000088e+01 0.000000000000000000e+00 3.801600000000000329e-05 -5.126755999999999674e-03 1.079440548600000049e+01
1.043898784900000010e+01 0.000000000000000000e+00 0.000000000000000000e+00 2.994156999999999895e-03 1.054206806700000065e+01 0.000000000000000000e+00 3.837400000000000224e-05 -5.175034999999999705e-03 1.089605728699999965e+01
1.039231636000000059e+01 0.000000000000000000e+00 0.000000000000000000e+00 -1.680762200000000123e-02 1.051330834700000061e+01 0.000000000000000000e+00 -3.099958999999999788e-03 -1.901847900000000133e-02 1.084643160499999937e+01
1.034975852800000062e+01 0.000000000000000000e+00 0.000000000000000000e+00 -1.673879299999999834e-02 1.047025503799999946e+01 0.000000000000000000e+00 -3.087264000000000154e-03 -1.894059600000000052e-02 1.080201411400000033e+01
1.030652483499999938e+01 0.000000000000000000e+00 0.000000000000000000e+00 -1.666886999999999883e-02 1.042651799899999965e+01 0.000000000000000000e+00 -3.074368000000000066e-03 -1.886147599999999855e-02 1.075689122900000072e+01
1.042069556100000050e+01 0.000000000000000000e+00 0.000000000000000000e+00 2.988910000000000004e-03 1.052359515100000031e+01 0.000000000000000000e+00 3.830600000000000221e-05 -5.165966000000000134e-03 1.087696407399999998e+01
1.028365685500000026e+01 0.000000000000000000e+00 0.000000000000000000e+00 -1.663188599999999850e-02 1.040338377900000033e+01 0.000000000000000000e+00 -3.067545999999999988e-03 -1.881962599999999902e-02 1.073302398200000063e+01
1.019007919699999931e+01 0.000000000000000000e+00 0.000000000000000000e+00 -1.648054100000000133e-02 1.030871664800000076e+01 0.000000000000000000e+00 -3.039632999999999918e-03 -1.864837399999999881e-02 1.063535724099999946e+01
1.033785125900000068e+01 0.000000000000000000e+00 0.000000000000000000e+00 2.965148999999999823e-03 1.043993279999999935e+01 0.000000000000000000e+00 3.800199999999999970e-05 -5.124896999999999786e-03 1.079049244700000010e+01
1.008560843699999943e+01 0.000000000000000000e+00 0.000000000000000000e+00 -1.631157999999999914e-02 1.020302959300000012e+01 0.000000000000000000e+00 -3.008470000000000068e-03 -1.845718699999999990e-02 1.052632140100000058e+01
1.024356717999999944e+01 0.000000000000000000e+00 0.000000000000000000e+00 2.938105999999999791e-03 1.034471770899999932e+01 0.000000000000000000e+00 3.765499999999999777e-05 -5.078156999999999810e-03 1.069208015499999931e+01
1.047039656399999963e+01 0.000000000000000000e+00 0.000000000000000000e+00 3.003165999999999822e-03 1.057378692900000061e+01 0.000000000000000000e+00 3.848899999999999690e-05 -5.190605000000000045e-03 1.092884122799999957e+01
1.038005629599999935e+01 0.000000000000000000e+00 0.000000000000000000e+00 2.977253999999999925e-03 1.048255459299999970e+01 0.000000000000000000e+00 3.815700000000000076e-05 -5.145819999999999735e-03 1.083454542600000003e+01
1.040396608400000034e+01 0.000000000000000000e+00 0.000000000000000000e+00 -1.682646299999999984e-02 1.052509370199999950e+01 0.000000000000000000e+00 -3.103433999999999967e-03 -1.903979800000000014e-02 1.085859038899999973e+01
1.021096338699999961e+01 0.000000000000000000e+00 0.000000000000000000e+00 -1.651431800000000005e-02 1.032984398199999987e+01 0.000000000000000000e+00 -3.045861999999999875e-03 -1.868659300000000134e-02 1.065715401299999954e+01
1.045167668999999933e+01 0.000000000000000000e+00 0.000000000000000000e+00 -1.690362600000000146e-02 1.057335977600000021e+01 0.000000000000000000e+00 -3.117664999999999933e-03 -1.912711099999999873e-02 1.090838581500000082e+01
1.050025092599999965e+01 0.000000000000000000e+00 0.000000000000000000e+00 3.011728999999999882e-03 1.060393608999999948e+01 0.000000000000000000e+00 3.859900000000000093e-05 -5.205404999999999754e-03 1.096000275799999990e+01
1.038988054600000055e+01 0.000000000000000000e+00 0.000000000000000000e+00 2.980071999999999843e-03 1.049247585300000019e+01 0.000000000000000000e+00 3.819299999999999838e-05 -5.150690000000000303e-03 1.084479982899999939e+01
1.043309016100000086e+01 0.000000000000000000e+00 0.000000000000000000e+00 -1.687356599999999957e-02 1.055455685499999952e+01 0.000000000000000000e+00 -3.112120999999999811e-03 -1.909309699999999985e-02 1.088898710700000017e+01