4.726650000000000240e+00 3.047979999999999912e+00 2.687879999999999825e+00 3.876599999999999824e+00 3.222519999999999829e+00 7.749859999999999971e+00 4.728119999999999656e+00 8.249790000000000845e+00 2.515989999999999949e+00 3.783279999999999976e+00 8.284720000000000084e+00 7.856869999999999798e+00 -4.531299999999999772e-01 3.013840000000000074e+00 2.894940000000000069e+00 8.859759999999999636e+00 2.943270000000000053e+00 8.017590000000000217e+00 -4.319700000000000206e-01 8.095079999999999387e+00 2.766840000000000188e+00 8.762079999999999202e+00 8.246510000000000673e+00 7.963160000000000238e+00 1.747759999999999980e+00 3.110299999999999732e-01 3.110310000000000130e+00 8.829399999999999471e-01 5.269200000000000550e-01 8.383459999999999468e+00 1.672309999999999963e+00 5.546770000000000422e+00 3.053269999999999929e+00 7.043899999999999606e-01 5.534799999999999720e+00 8.338430000000000675e+00 6.919679999999999609e+00 4.148700000000000165e-01 3.100540000000000074e+00 6.190439999999999721e+00 3.258599999999999830e-01 8.317849999999999966e+00 6.979000000000000092e+00 5.647560000000000358e+00 2.795549999999999979e+00 6.013469999999999871e+00 5.762179999999999858e+00 8.311289999999999623e+00 2.206780000000000186e+00 2.585580000000000211e+00 5.622000000000000330e-01 1.377690000000000081e+00 2.511460000000000026e+00 5.786660000000000359e+00 2.156470000000000109e+00 7.884400000000000297e+00 4.356200000000000072e-01 1.345250000000000057e+00 7.781179999999999986e+00 5.773430000000000284e+00 7.528940000000000410e+00 2.806599999999999984e+00 3.840500000000000025e-01 6.427719999999999878e+00 2.608600000000000030e+00 5.726829999999999643e+00 7.260580000000000034e+00 7.926040000000000418e+00 3.407700000000000173e-01 6.603200000000000180e+00 7.833569999999999922e+00 5.701039999999999885e+00 3.269289999999999807e+00 5.348349999999999937e+00 1.041685000000000016e+01 4.244209999999999816e+00 5.367899999999999672e+00 5.123569999999999958e+00 3.398050000000000015e+00 2.074300000000000033e-01 1.031874999999999964e+01 4.215010000000000367e+00 1.034661000000000008e+01 5.178709999999999702e+00 8.396129999999999427e+00 5.208540000000000170e+00 1.049804999999999922e+01 -8.431899999999999951e-01 5.189560000000000173e+00 5.321909999999999918e+00 1.913000000000000117e-02 6.205000000000000099e-02 4.025000000000000105e-02 9.250030000000000641e+00 1.026670999999999978e+01 5.330169999999999852e+00 3.449549999999999894e+00 4.479840000000000266e+00 3.475379999999999914e+00 2.670380000000000198e+00 4.651790000000000092e+00 8.617079999999999629e+00 3.425260000000000193e+00 9.581759999999999167e+00 3.425629999999999953e+00 2.598850000000000104e+00 9.912539999999999907e+00 8.386079999999999757e+00 8.580130000000000479e+00 4.663439999999999586e+00 3.325140000000000207e+00 7.824099999999999611e+00 4.514540000000000219e+00 8.641970000000000596e+00 8.608029999999999404e+00 9.658260000000000289e+00 3.413759999999999906e+00 7.676610000000000156e+00 9.485900000000000887e+00 8.996990000000000265e+00 2.889850000000000030e+00 1.967870000000000008e+00 2.388090000000000046e+00 2.127660000000000107e+00 2.162430000000000074e+00 7.650039999999999729e+00 3.019769999999999843e+00 6.998899999999999899e+00 2.263139999999999930e+00 2.169750000000000068e+00 7.039690000000000225e+00 7.643819999999999837e+00 8.219329999999999359e+00 2.100530000000000008e+00 2.244800000000000129e+00 7.120219999999999771e+00 1.909599999999999964e+00 7.588189999999999991e+00 8.065950000000000841e+00 7.213549999999999685e+00 2.079649999999999999e+00 7.190920000000000201e+00 7.188270000000000159e+00 7.567149999999999821e+00 2.672190000000000065e+00 1.233219999999999983e+00 5.002349999999999852e+00 1.714190000000000103e+00 1.120740000000000069e+00 1.023254999999999981e+01 2.561370000000000147e+00 6.455079999999999707e+00 4.896849999999999703e+00 1.588170000000000082e+00 6.503479999999999706e+00 1.020734999999999992e+01 7.804879999999999818e+00 1.298170000000000046e+00 4.849020000000000330e+00 6.776130000000000209e+00 1.187130000000000019e+00 1.008924999999999983e+01 7.640229999999999855e+00 6.201710000000000278e+00 4.979379999999999917e+00 6.681829999999999714e+00 6.223959999999999937e+00 1.024264999999999937e+01 3.969980000000000064e+00 3.778869999999999951e+00 9.030299999999999994e-01 2.871640000000000192e+00 3.936350000000000016e+00 5.819110000000000227e+00 3.864549999999999930e+00 9.191110000000000113e+00 8.365599999999999703e-01 2.948459999999999859e+00 9.024839999999999307e+00 5.886389999999999567e+00 2.533599999999999741e-01 1.410120000000000040e+00 4.106390000000000207e+00 -7.889800000000000146e-01 1.422020000000000062e+00 9.507569999999999411e+00 1.850999999999999868e-02 6.604809999999999626e+00 4.129380000000000273e+00 -8.769700000000000273e-01 6.807809999999999917e+00 9.218540000000000845e+00 5.393209999999999837e+00 1.604049999999999976e+00 3.984980000000000189e+00 4.526049999999999685e+00 1.606100000000000083e+00 9.204430000000000334e+00 5.488369999999999749e+00 6.644020000000000259e+00 3.873819999999999819e+00 4.380959999999999965e+00 6.774989999999999846e+00 9.011589999999999989e+00 9.277600000000000291e-01 4.190820000000000434e+00 1.733000000000000096e+00 3.715999999999999859e-02 4.189189999999999969e+00 6.946699999999999875e+00 9.291399999999999659e-01 9.310230000000000672e+00 1.677289999999999948e+00 2.252500000000000058e-01 9.344290000000000873e+00 6.824230000000000018e+00 6.306379999999999875e+00 4.253790000000000404e+00 1.384710000000000107e+00 5.497090000000000032e+00 4.324840000000000018e+00 6.761029999999999873e+00 6.440949999999999953e+00 9.492089999999999250e+00 1.531460000000000043e+00 5.676470000000000127e+00 9.403219999999999246e+00 6.851619999999999600e+00 6.176899999999999613e-01 4.023629999999999818e+00 4.284799999999999720e+00 2.188000000000000014e-02 4.041350000000000442e+00 9.528109999999999857e+00 6.994200000000000417e-01 9.340080000000000382e+00 4.208510000000000417e+00 -1.855000000000000052e-02 9.347939999999999472e+00 9.493439999999999657e+00 5.895249999999999879e+00 4.234790000000000276e+00 4.110509999999999664e+00 4.943810000000000038e+00 4.174019999999999619e+00 9.310370000000000701e+00 5.896139999999999937e+00 9.268599999999999284e+00 4.214879999999999960e+00 4.800080000000000346e+00 9.328329999999999345e+00 9.476810000000000400e+00 6.016700000000000381e-01 1.544869999999999965e+00 1.497030000000000083e+00 -4.188100000000000156e-01 1.396050000000000013e+00 6.806630000000000180e+00 5.967599999999999572e-01 6.652459999999999596e+00 1.558780000000000054e+00 -2.568799999999999972e-01 6.747239999999999682e+00 6.570899999999999963e+00 5.762590000000000323e+00 1.666979999999999906e+00 1.417969999999999953e+00 4.922690000000000232e+00 1.465710000000000068e+00 6.554680000000000284e+00 5.675349999999999895e+00 6.848959999999999937e+00 1.210620000000000029e+00 4.815649999999999764e+00 6.908900000000000041e+00 6.418040000000000411e+00
4.674710000000000143e+00 3.047449999999999992e+00 2.641049999999999898e+00 3.767370000000000108e+00 3.094170000000000087e+00 7.874579999999999913e+00 4.765130000000000088e+00 8.502399999999999736e+00 2.357250000000000068e+00 3.834039999999999893e+00 8.361370000000000857e+00 7.723060000000000258e+00 -4.729099999999999970e-01 2.989790000000000170e+00 2.804520000000000124e+00 8.885429999999999495e+00 2.944409999999999972e+00 8.011639999999999873e+00 -3.536299999999999999e-01 8.428300000000000125e+00 2.540519999999999889e+00 8.854829999999999757e+00 8.285299999999999443e+00 7.942330000000000112e+00 1.841360000000000108e+00 5.610199999999999632e-01 3.356980000000000075e+00 9.912199999999999900e-01 2.998799999999999799e-01 8.375600000000000378e+00 1.689959999999999907e+00 5.789130000000000109e+00 3.050159999999999982e+00 7.604100000000000303e-01 5.656109999999999971e+00 8.334699999999999775e+00 7.109600000000000364e+00 3.873900000000000121e-01 3.042479999999999851e+00 5.929050000000000153e+00 2.336100000000000121e-01 8.323499999999999233e+00 6.916080000000000005e+00 5.698900000000000077e+00 3.016989999999999839e+00 6.033739999999999881e+00 5.536319999999999908e+00 8.171409999999999840e+00 2.134209999999999940e+00 2.670830000000000037e+00 6.818199999999999816e-01 1.394409999999999927e+00 2.652810000000000112e+00 5.775319999999999787e+00 2.458940000000000126e+00 7.849490000000000300e+00 3.232400000000000273e-01 1.341990000000000016e+00 7.793190000000000062e+00 5.780450000000000088e+00 7.291050000000000253e+00 2.726039999999999797e+00 3.378099999999999992e-01 6.487599999999999589e+00 2.508809999999999985e+00 5.699530000000000207e+00 7.519140000000000157e+00 7.813049999999999606e+00 4.045099999999999807e-01 6.439180000000000348e+00 7.815000000000000391e+00 5.512349999999999639e+00 3.297860000000000014e+00 5.282230000000000203e+00 1.033409999999999940e+01 4.376710000000000100e+00 5.209990000000000343e+00 5.210589999999999833e+00 3.339329999999999909e+00 2.968899999999999872e-01 1.045899999999999963e+01 4.341840000000000366e+00 3.930999999999999772e-02 5.395739999999999981e+00 1.020828999999999986e+01 5.205339999999999634e+00 1.520100000000000062e-01 9.371159999999999712e+00 5.176759999999999806e+00 5.238970000000000127e+00 8.385040000000000049e+00 2.318399999999999905e-01 1.047180000000000000e+01 -8.547400000000000553e-01 1.028098999999999918e+01 5.430649999999999977e+00 3.530600000000000183e+00 4.525059999999999860e+00 3.378849999999999909e+00 2.323630000000000084e+00 4.326509999999999856e+00 8.756840000000000401e+00 3.497129999999999850e+00 9.868220000000000880e+00 3.314210000000000100e+00 2.729080000000000172e+00 9.850649999999999906e+00 8.640309999999999491e+00 8.217209999999999681e+00 3.720619999999999816e+00 6.079080000000000261e+00 7.806099999999999817e+00 4.643399999999999750e+00 8.478339999999999321e+00 8.015689999999999316e+00 9.310829999999999274e+00 6.495669999999999611e+00 7.449399999999999800e+00 9.508520000000000749e+00 8.939629999999999299e+00 2.895090000000000163e+00 2.181579999999999853e+00 2.580950000000000077e+00 2.207370000000000054e+00 2.026569999999999983e+00 7.399219999999999686e+00 3.080449999999999910e+00 6.973959999999999937e+00 2.228940000000000143e+00 2.051909999999999901e+00 7.062940000000000218e+00 7.673230000000000217e+00 8.164600000000000080e+00 1.956720000000000015e+00 2.072890000000000121e+00 7.200269999999999726e+00 1.616919999999999913e+00 7.407130000000000436e+00 8.231899999999999551e+00 7.346460000000000434e+00 2.375459999999999905e+00 7.050099999999999589e+00 7.220930000000000071e+00 7.360529999999999795e+00 2.683399999999999785e+00 1.294999999999999929e+00 4.994749999999999801e+00 1.409340000000000037e+00 1.417319999999999913e+00 1.023600000000000065e+01 2.570969999999999978e+00 6.303399999999999892e+00 4.809210000000000207e+00 1.721030000000000060e+00 6.381529999999999703e+00 1.014419999999999966e+01 7.924699999999999633e+00 1.276459999999999928e+00 4.624690000000000190e+00 6.833630000000000315e+00 1.471789999999999932e+00 1.017430000000000057e+01 7.629170000000000229e+00 6.340950000000000308e+00 4.893309999999999604e+00 6.777350000000000207e+00 6.175950000000000273e+00 1.030020000000000024e+01 3.863420000000000076e+00 3.983350000000000168e+00 9.238100000000000200e-01 3.026879999999999793e+00 3.849180000000000046e+00 6.044240000000000279e+00 3.934810000000000141e+00 9.127660000000000551e+00 6.496300000000000407e-01 2.980500000000000149e+00 8.984030000000000626e+00 5.982350000000000279e+00 8.735999999999999321e-02 1.548310000000000075e+00 4.490079999999999849e+00 -8.062300000000000022e-01 1.344659999999999966e+00 9.177759999999999252e+00 1.609599999999999920e-01 6.804409999999999847e+00 4.020340000000000025e+00 -6.929300000000000459e-01 6.809669999999999668e+00 9.399169999999999803e+00 5.441589999999999705e+00 1.528170000000000028e+00 4.187590000000000146e+00 4.319890000000000008e+00 1.489859999999999962e+00 9.240140000000000242e+00 5.360389999999999766e+00 6.618859999999999744e+00 4.013230000000000075e+00 4.565210000000000434e+00 6.666690000000000005e+00 9.133609999999999118e+00 1.010199999999999987e+00 4.055530000000000079e+00 1.711179999999999923e+00 9.879000000000000281e-02 4.293020000000000280e+00 6.861919999999999575e+00 1.144539999999999891e+00 9.468709999999999738e+00 1.689619999999999900e+00 3.155899999999999817e-01 9.325350000000000250e+00 7.038459999999999717e+00 6.329589999999999606e+00 4.326469999999999594e+00 1.627170000000000005e+00 5.380959999999999965e+00 4.210549999999999571e+00 6.877200000000000202e+00 6.320879999999999832e+00 9.748300000000000409e+00 1.564170000000000060e+00 5.464940000000000353e+00 9.349619999999999820e+00 6.711549999999999905e+00 6.902700000000000502e-01 4.108089999999999797e+00 4.340209999999999901e+00 -1.664700000000000069e-01 3.864269999999999872e+00 9.606149999999999523e+00 8.274099999999999788e-01 9.404080000000000439e+00 4.440450000000000230e+00 -9.669999999999999429e-02 9.337410000000000210e+00 9.490289999999999893e+00 5.842170000000000307e+00 4.131190000000000140e+00 4.326069999999999638e+00 4.929090000000000416e+00 4.077619999999999578e+00 9.377959999999999852e+00 5.996749999999999581e+00 9.434540000000000148e+00 4.353559999999999874e+00 4.825190000000000090e+00 9.248979999999999535e+00 9.547499999999999432e+00 4.545399999999999996e-01 1.520860000000000101e+00 1.637969999999999926e+00 -6.463000000000000689e-02 1.353939999999999921e+00 6.769300000000000317e+00 5.009200000000000319e-01 6.668149999999999800e+00 1.428549999999999986e+00 -4.814499999999999891e-01 6.609130000000000393e+00 6.669920000000000293e+00 5.681390000000000384e+00 1.766979999999999995e+00 1.235249999999999959e+00 4.704640000000000377e+00 1.495889999999999942e+00 6.715029999999999610e+00 5.819939999999999891e+00 6.915060000000000429e+00 1.411310000000000064e+00 4.703899999999999970e+00 6.735299999999999621e+00 6.506940000000000168e+00
4.779639999999999667e+00 3.122860000000000191e+00 2.713950000000000085e+00 3.771549999999999958e+00 2.958040000000000003e+00 7.785849999999999937e+00 4.702040000000000219e+00 8.225360000000000227e+00 2.673589999999999911e+00 3.932150000000000034e+00 8.259130000000000749e+00 8.135910000000000863e+00 9.774369999999999337e+00 2.909559999999999924e+00 2.703139999999999876e+00 -1.227989999999999915e+00 3.145459999999999923e+00 8.085530000000000328e+00 9.845129999999999271e+00 8.439360000000000639e+00 2.764580000000000037e+00 9.031909999999999883e+00 8.156909999999999883e+00 7.725430000000000241e+00 1.935170000000000057e+00 3.056800000000000073e-01 3.238080000000000069e+00 6.891699999999999493e-01 4.890200000000000102e-01 8.416719999999999757e+00 1.701549999999999896e+00 5.655800000000000161e+00 2.935560000000000169e+00 9.098000000000000531e-01 5.560800000000000409e+00 8.352430000000000021e+00 7.044830000000000148e+00 4.899299999999999766e-01 2.873099999999999987e+00 6.335270000000000401e+00 4.575799999999999867e-01 8.335219999999999629e+00 7.066150000000000375e+00 5.609230000000000160e+00 2.999719999999999942e+00 5.988780000000000214e+00 5.588729999999999976e+00 8.231640000000000512e+00 2.149880000000000013e+00 2.722649999999999793e+00 6.920899999999999830e-01 1.447060000000000013e+00 2.510709999999999997e+00 5.651959999999999873e+00 2.098040000000000127e+00 7.859479999999999578e+00 2.728800000000000114e-01 1.388719999999999954e+00 7.871059999999999945e+00 5.886350000000000193e+00 7.343989999999999796e+00 2.731809999999999850e+00 3.142699999999999938e-01 6.427439999999999820e+00 2.548130000000000006e+00 5.609910000000000174e+00 7.385519999999999641e+00 8.199149999999999494e+00 7.079400000000000137e-01 6.745910000000000295e+00 7.799039999999999750e+00 5.639680000000000248e+00 5.078170000000000073e+00 5.339129999999999932e+00 1.930900000000000116e-01 4.193100000000000271e+00 5.431770000000000209e+00 5.110689999999999955e+00 5.088359999999999772e+00 6.893000000000000516e-02 5.004999999999999727e-02 4.412390000000000256e+00 1.030320000000000036e+01 5.413680000000000270e+00 8.271639999999999660e+00 5.645830000000000126e+00 1.049052000000000007e+01 -7.573499999999999677e-01 5.217279999999999696e+00 5.121120000000000339e+00 1.015365000000000073e+01 1.106700000000000045e-01 2.790699999999999847e-01 9.357770000000000366e+00 6.575000000000000289e-02 5.221180000000000376e+00 3.454140000000000210e+00 4.501730000000000231e+00 3.468049999999999855e+00 2.365489999999999871e+00 4.386190000000000033e+00 8.967010000000000147e+00 3.686760000000000037e+00 9.673180000000000334e+00 3.616670000000000051e+00 2.626230000000000064e+00 9.625469999999999970e+00 8.832539999999999836e+00 8.674630000000000507e+00 4.359829999999999650e+00 3.306140000000000079e+00 7.823820000000000441e+00 4.687020000000000408e+00 8.632030000000000314e+00 8.126260000000000261e+00 9.207890000000000796e+00 6.113299999999999734e+00 7.636589999999999989e+00 9.628959999999999297e+00 9.005449999999999733e+00 2.897139999999999826e+00 1.984590000000000076e+00 2.320809999999999818e+00 2.267840000000000078e+00 1.750189999999999912e+00 7.438500000000000334e+00 3.101719999999999811e+00 7.112829999999999764e+00 2.159269999999999801e+00 2.277239999999999931e+00 6.777219999999999800e+00 7.475259999999999572e+00 8.488210000000000477e+00 1.809090000000000087e+00 2.048669999999999991e+00 7.469809999999999839e+00 2.046450000000000102e+00 7.534799999999999720e+00 8.080069999999999197e+00 7.509719999999999729e+00 2.571720000000000006e+00 7.371599999999999930e+00 7.224700000000000344e+00 7.616990000000000371e+00 2.839719999999999800e+00 1.143100000000000005e+00 5.011359999999999815e+00 1.601020000000000110e+00 1.516110000000000069e+00 1.022652000000000072e+01 2.555149999999999810e+00 6.586229999999999585e+00 4.628110000000000390e+00 1.592209999999999903e+00 6.533479999999999954e+00 1.014251999999999931e+01 8.011100000000000776e+00 1.421470000000000011e+00 4.761289999999999800e+00 6.868949999999999889e+00 1.589939999999999909e+00 9.991250000000000853e+00 7.798040000000000305e+00 6.086339999999999861e+00 4.973419999999999952e+00 6.596630000000000216e+00 6.698039999999999772e+00 1.002580000000000027e+01 3.779900000000000038e+00 3.857330000000000148e+00 8.354399999999999604e-01 2.811519999999999797e+00 4.008390000000000342e+00 5.984700000000000131e+00 3.863280000000000047e+00 9.315709999999999269e+00 1.013099999999999890e+00 2.977349999999999941e+00 9.117539999999999978e+00 6.193080000000000140e+00 6.019900000000000251e-01 1.324899999999999967e+00 4.206470000000000375e+00 -7.780700000000000394e-01 1.449789999999999912e+00 9.469239999999999213e+00 1.502300000000000024e-01 6.631020000000000358e+00 3.853569999999999940e+00 -7.310100000000000486e-01 6.791059999999999874e+00 9.404669999999999419e+00 5.470250000000000057e+00 1.474869999999999903e+00 4.043339999999999712e+00 4.444840000000000124e+00 1.603140000000000009e+00 9.085570000000000590e+00 5.494200000000000195e+00 6.807380000000000209e+00 3.934039999999999981e+00 4.342389999999999972e+00 6.547139999999999738e+00 9.218329999999999913e+00 6.269000000000000128e-01 4.329299999999999926e+00 1.585150000000000059e+00 1.863900000000000001e-01 4.194609999999999950e+00 6.811350000000000016e+00 1.051250000000000018e+00 9.514160000000000394e+00 1.587269999999999959e+00 2.718900000000000206e-01 9.596259999999999124e+00 6.886140000000000150e+00 6.452359999999999651e+00 4.193270000000000053e+00 1.643420000000000103e+00 5.350999999999999979e+00 4.196579999999999977e+00 6.903010000000000090e+00 6.047579999999999956e+00 9.609849999999999781e+00 1.823250000000000037e+00 5.444289999999999630e+00 9.490589999999999193e+00 7.106090000000000018e+00 7.467899999999999539e-01 4.051359999999999850e+00 4.110039999999999694e+00 -3.504700000000000037e-01 4.111869999999999692e+00 9.822449999999999903e+00 6.254800000000000360e-01 9.133960000000000079e+00 4.359409999999999563e+00 -1.385399999999999965e-01 9.248730000000000118e+00 9.408920000000000172e+00 5.876330000000000275e+00 4.255910000000000082e+00 4.381809999999999761e+00 4.947899999999999743e+00 4.338350000000000151e+00 9.604119999999999990e+00 5.985929999999999751e+00 9.371069999999999567e+00 4.237569999999999837e+00 4.800399999999999778e+00 9.314260000000000872e+00 9.811709999999999710e+00 5.850100000000000300e-01 1.548319999999999919e+00 1.617590000000000083e+00 -1.540700000000000125e-01 1.697559999999999958e+00 6.927609999999999602e+00 4.296099999999999919e-01 7.010089999999999932e+00 1.339229999999999920e+00 -3.113400000000000056e-01 6.811639999999999695e+00 6.536410000000000053e+00 5.920609999999999928e+00 1.622139999999999915e+00 1.460650000000000004e+00 5.156579999999999941e+00 1.363310000000000022e+00 6.752449999999999619e+00 5.847339999999999982e+00 6.868669999999999831e+00 1.430399999999999894e+00 5.145599999999999952e+00 6.872499999999999609e+00 6.547259999999999636e+00
4.843770000000000131e+00 3.151260000000000172e+00 2.702620000000000022e+00 3.783659999999999801e+00 2.818960000000000132e+00 8.039360000000000284e+00 4.395360000000000156e+00 8.052270000000000039e+00 2.536579999999999835e+00 4.064020000000000188e+00 8.600270000000000081e+00 7.907300000000000217e+00 9.747049999999999770e+00 2.809309999999999974e+00 2.929339999999999833e+00 -1.281600000000000072e+00 2.933230000000000004e+00 8.202949999999999520e+00 9.803929999999999367e+00 8.250019999999999243e+00 2.578230000000000022e+00 9.021549999999999514e+00 8.449460000000000193e+00 8.213480000000000558e+00 1.711189999999999989e+00 4.625400000000000067e-01 3.420370000000000132e+00 8.499999999999999778e-01 5.824500000000000233e-01 8.677920000000000300e+00 1.580070000000000086e+00 5.841029999999999944e+00 3.249350000000000183e+00 1.155289999999999928e+00 5.765410000000000146e+00 8.385550000000000281e+00 6.882399999999999629e+00 3.280600000000000183e-01 3.013949999999999907e+00 6.245009999999999728e+00 7.650400000000000533e-01 8.588499999999999801e+00 6.917869999999999742e+00 5.828710000000000058e+00 2.791799999999999837e+00 6.066970000000000418e+00 5.667419999999999902e+00 8.311799999999999855e+00 2.338950000000000085e+00 2.698920000000000208e+00 5.891999999999999460e-01 1.583790000000000031e+00 2.787990000000000190e+00 5.709229999999999805e+00 2.160909999999999886e+00 7.998210000000000264e+00 5.139500000000000179e-01 1.350489999999999968e+00 8.100220000000000198e+00 6.178130000000000344e+00 7.643659999999999677e+00 2.943839999999999790e+00 4.009800000000000031e-01 6.931630000000000180e+00 2.879370000000000207e+00 5.742469999999999963e+00 6.173399999999999999e+00 8.089719999999999800e+00 1.061688000000000009e+01 6.912279999999999980e+00 7.945420000000000371e+00 5.554289999999999949e+00 3.309239999999999959e+00 5.443279999999999674e+00 1.067417999999999978e+01 3.985559999999999992e+00 5.413100000000000023e+00 5.131140000000000256e+00 3.327020000000000088e+00 1.058892999999999951e+01 1.058497999999999983e+01 4.369519999999999627e+00 1.058033000000000001e+01 5.201319999999999943e+00 2.126899999999999902e-01 5.351180000000000270e+00 1.068000000000000026e-02 -8.182700000000000529e-01 5.108979999999999855e+00 5.628770000000000273e+00 1.022964999999999947e+01 1.924700000000000022e-01 4.544599999999999751e-01 9.386390000000000455e+00 7.277999999999999747e-02 5.566869999999999763e+00 3.397450000000000081e+00 4.475089999999999790e+00 3.581649999999999778e+00 2.649109999999999854e+00 4.576080000000000148e+00 8.879350000000000520e+00 3.463589999999999947e+00 9.760160000000000835e+00 3.359059999999999935e+00 2.762719999999999843e+00 9.907140000000000057e+00 8.828480000000000771e+00 8.371959999999999624e+00 4.106690000000000396e+00 6.749500000000000277e+00 7.651880000000000237e+00 3.833899999999999864e+00 9.476589999999999847e+00 8.367039999999999367e+00 9.509169999999999234e+00 3.850960000000000161e+00 8.800789999999999225e+00 9.010790000000000077e+00 6.394599999999999618e+00 3.170389999999999819e+00 1.853830000000000089e+00 2.528579999999999828e+00 1.805560000000000054e+00 2.130869999999999820e+00 7.639579999999999593e+00 2.782490000000000130e+00 7.134360000000000035e+00 2.225849999999999884e+00 2.498120000000000118e+00 7.340819999999999901e+00 7.886879999999999669e+00 8.958840000000000359e+00 4.057599999999999874e+00 1.507830000000000004e+00 7.539909999999999890e+00 1.644409999999999927e+00 7.155129999999999768e+00 8.304299999999999571e+00 7.250779999999999781e+00 1.698260000000000103e+00 7.655949999999999811e+00 6.957970000000000432e+00 7.253120000000000012e+00 2.747560000000000002e+00 1.021970000000000045e+00 4.977949999999999875e+00 1.901180000000000092e+00 1.573939999999999895e+00 1.019497999999999927e+01 2.164930000000000021e+00 6.598499999999999588e+00 5.085169999999999746e+00 1.966490000000000071e+00 6.802629999999999733e+00 1.041388000000000069e+01 8.068849999999999412e+00 1.631129999999999969e+00 4.307210000000000427e+00 7.073809999999999931e+00 1.234960000000000058e+00 1.030568000000000062e+01 7.841840000000000366e+00 6.754579999999999806e+00 4.436099999999999710e+00 7.566329999999999778e+00 6.603480000000000238e+00 9.901839999999999975e+00 3.792930000000000135e+00 3.904049999999999798e+00 1.145429999999999948e+00 2.932710000000000150e+00 3.974209999999999798e+00 6.269210000000000171e+00 3.679479999999999862e+00 9.101039999999999353e+00 5.312599999999999545e-01 3.295760000000000023e+00 8.940599999999999881e+00 5.954550000000000232e+00 -4.782999999999999752e-02 1.473160000000000025e+00 4.390819999999999723e+00 -6.639100000000000001e-01 1.743209999999999926e+00 9.567899999999999849e+00 -2.217200000000000004e-01 6.688530000000000086e+00 4.088790000000000369e+00 -3.862900000000000222e-01 7.081979999999999720e+00 9.572900000000000631e+00 5.483080000000000176e+00 1.577839999999999909e+00 4.060100000000000264e+00 4.719800000000000217e+00 1.757090000000000041e+00 9.358950000000000102e+00 5.281579999999999941e+00 6.542089999999999961e+00 4.021740000000000315e+00 4.843689999999999607e+00 6.865070000000000228e+00 9.480729999999999436e+00 1.438940000000000108e+00 4.206879999999999953e+00 1.613799999999999901e+00 4.025900000000000034e-01 4.034500000000000419e+00 7.078850000000000087e+00 9.099599999999999911e-01 9.551249999999999574e+00 1.957980000000000054e+00 2.589699999999999780e-01 9.410349999999999326e+00 7.775450000000000195e+00 6.552299999999999791e+00 4.245759999999999756e+00 1.654239999999999933e+00 5.556829999999999714e+00 4.020360000000000156e+00 7.198100000000000165e+00 5.912530000000000285e+00 9.716530000000000555e+00 1.634579999999999922e+00 5.973740000000000272e+00 9.432119999999999393e+00 7.322790000000000354e+00 5.989799999999999569e-01 3.949600000000000222e+00 4.080879999999999619e+00 -1.382899999999999963e-01 4.048680000000000057e+00 9.606840000000000046e+00 6.515400000000000080e-01 9.696120000000000516e+00 4.864060000000000272e+00 -6.550300000000000011e-01 9.487000000000000099e+00 9.770789999999999864e+00 5.796079999999999899e+00 4.411360000000000170e+00 4.152429999999999843e+00 4.846400000000000041e+00 4.300119999999999720e+00 9.731640000000000512e+00 6.306280000000000108e+00 9.778529999999999944e+00 4.709120000000000417e+00 5.025059999999999860e+00 9.717209999999999681e+00 9.793139999999999290e+00 6.219799999999999773e-01 1.405340000000000034e+00 1.874970000000000026e+00 -4.059900000000000175e-01 1.395529999999999937e+00 6.699489999999999945e+00 5.554000000000000048e-01 6.684300000000000352e+00 1.569560000000000066e+00 -4.290999999999999676e-02 6.593510000000000204e+00 6.860549999999999926e+00 6.207959999999999923e+00 1.891469999999999985e+00 1.219689999999999941e+00 4.510720000000000063e+00 1.413389999999999924e+00 6.666339999999999932e+00 5.638010000000000410e+00 6.903389999999999915e+00 1.617639999999999967e+00 5.271510000000000140e+00 6.710709999999999731e+00 6.815129999999999910e+00