-1.340545714647670529e-03 1.511512880117685557e-03 -1.172004266279823206e-03 -1.364543460229657732e-03 1.546518656078832953e-03 -6.780045660204604913e-04 -4.767408886659359294e-05 -9.089985564155175562e-04 6.270269577021755220e-04 2.459340256109502493e-03 -8.921294855864325777e-04 1.323954865403852111e-03 9.259403554805455952e-04 2.303318201632750914e-04 6.419670635732281855e-04 9.288252395180432962e-04 -2.323648122861548398e-03 1.325038895865421730e-03 2.812950679041074497e-03 -2.784039954410760798e-03 2.519980347679037476e-04 -2.294867430789087909e-03 2.354153968470707597e-03 -2.437000732014069516e-03 2.846900507690170151e-04 9.611119694632287236e-04 5.489648050172696260e-04 -2.192279207772230946e-03 9.322934986476388592e-04 1.288036376640389231e-03 1.562445792500136892e-03 -1.413503413794605984e-03 -1.163004834336304073e-03 1.710490986710673945e-03 -1.504439098437521148e-03 -6.600065025998174328e-04 -2.765959864977288272e-03 2.831062521899151575e-03 -1.600070101088369934e-05 2.428728121677715002e-03 -2.349244201145394076e-03 -2.380003234106327532e-03 -9.339323851560041518e-04 -1.513002956249939854e-04 5.740309403687279865e-04 -9.617544414032455462e-04 2.332709728572053033e-03 1.259961791748636034e-03 8.066974253688817108e-04 7.542270162179227303e-04 -1.647044283530417746e-03 1.606471686905855270e-03 1.520531402490453389e-03 -4.620887070793556627e-04 1.713162800225319663e-03 -5.504430083680832055e-04 -8.330334413832579101e-04 7.027442856487385418e-04 8.272623368696013823e-04 8.589566316090064364e-04 -6.266108056758368022e-04 1.726762479084501629e-03 -8.990307219646204552e-04 8.808034564141089704e-04 6.523225460255333745e-04 8.549564708894391270e-04 -5.517915554975512133e-04 -4.561338740460895791e-04 1.887028608216976579e-03 -7.377985258121493679e-04 -6.602718966287288724e-04 -7.769603322124756699e-04 -1.529243901721269059e-03 6.394551427263960594e-04 -9.499743204366492425e-04 -4.687040314233058150e-04 -7.941323406612859834e-04 9.420357511492694416e-04 -5.718337821426087075e-04 -6.302403750911285234e-04 -1.654965919650756368e-03 -1.379530913295797835e-03 -1.425481130825549106e-03 -4.839204530928366754e-04 4.878471752558389955e-04 6.062170958039856620e-04 1.838968995483578018e-03 7.097141769251555854e-04 7.772183358645709484e-04 -7.880421597017229574e-04 5.814996996201862983e-04 -1.542825802215540146e-03 -8.079731699503451626e-04 -7.377790228313377708e-04 -5.832269614187419841e-04 8.190374991075180088e-04 -8.001556417563253398e-05 3.596956894339988002e-05 -1.179987271104279017e-04 -1.440499849038606598e-04 2.369810701374006480e-04 1.060997443091042745e-03 -1.040194089166955973e-04 5.296332261470503889e-05 -5.099851984353997482e-05 -4.101163643497676567e-05 1.120120347373517459e-04 9.209980183208451871e-04 2.298131058910470330e-05 4.900573473823965307e-05 -7.300203645359763089e-05 3.198967815248002802e-05 1.060360657041276033e-04 8.959961011420142837e-04 -6.496541193408304825e-05 1.340568098395040423e-04 2.799998083390038955e-03 1.139598732566845640e-03 1.163379159122274143e-03 -2.500653131723581620e-04 -1.060852263475572889e-03 -4.573665393874632541e-04 -2.509568164595043214e-04 -1.182650411865485661e-03 -1.049406603445595483e-03 -2.069366665411803078e-04 9.267851016122885272e-04 6.133070202034317025e-04 -2.500437449701297245e-04 -3.311589432353665655e-04 4.488810917589765976e-04 -2.390031794276063738e-04 -1.753139955578969381e-03 3.893982094620208087e-04 -2.769608828342744124e-04 3.410660052888183779e-04 -2.138908385254431458e-04 -2.270037207430981602e-04 1.725085381447287068e-03 -2.704217542527302242e-04 -2.220416662334850715e-04 -9.115227577366932744e-04 1.572701259435718485e-03 3.559817561300005775e-04 1.100057193832116795e-04 7.506795879633252168e-05 1.089994744604364874e-03 8.324833004212692060e-04 -1.395707819990207399e-03 3.620155186423564203e-04 -2.370262494774053855e-04 1.699505765321301530e-04 1.097001986595772536e-03 -2.950338649060394672e-04 1.387132361816129920e-05 -1.019991963174066152e-03 1.567821653781287304e-04 7.040735698786970134e-04 7.249756967082502182e-04 3.449309819460728128e-04 1.200889568613421065e-04 -9.920132358661717855e-04 -1.417956425785144665e-04 -5.440283438277350577e-04 7.010193698164111009e-04 -6.402785911248906386e-05 5.496921679426865535e-05 -3.229997189820696564e-04 -1.020736153395755685e-04 1.139309396294823506e-04 -1.225000293080231051e-03 -6.604156127941404619e-05 1.149750682493154495e-04 -9.100135089570187720e-05 -8.800653708378742136e-05 7.899011406645892956e-05 7.080002904733074870e-04 -6.504099794436067985e-05 1.129752945638025575e-04 -9.500132317301544197e-05 2.398868424848124093e-05 9.302803401667785247e-05 7.069966958303401704e-04 -4.407576380383483735e-05 2.139818691520807071e-04 -1.140047662130422068e-04 5.702791213673213369e-05 -1.295751218813616371e-05 8.229987363995278603e-04 -1.162575239292878374e-03 -1.103343761787175343e-03 1.784064280318518100e-03 1.367479035998072582e-03 1.504452309701504332e-03 -3.950814269737207372e-04 -2.560984710079588860e-04 2.188893129303321708e-04 -8.499988481358505344e-04 -1.054361447497023131e-03 1.036632817668943192e-03 -3.549990695251599828e-04 2.090497106178441336e-04 -2.259556397685691094e-04 -9.399996102910746854e-04 9.592740740525353485e-04 -8.406856855497977891e-04 -3.790037321218846450e-04 1.081653110078586348e-03 1.173416441259573844e-03 1.771936061159950365e-03 -1.445581395213033343e-03 -1.276503502192340893e-03 -4.839227610937808463e-04 1.045602865073642571e-03 1.152347703981627730e-03 -2.360623173614558176e-04 -5.737080070040994793e-04 -8.832015610569590464e-04 -2.529587421812795004e-04 3.140888108353799232e-04 -2.839008839249808607e-04 -2.590009787908753428e-04 3.105544457928884929e-04 -1.658902413188709452e-03 -2.679621609760422362e-04 -1.215644559413658942e-03 -1.072419698215949270e-03 -2.749350760568454151e-04 5.326477877747782695e-04 1.019173723129372091e-03 -2.420439139107798175e-04 -4.031711821815849419e-04 4.878576511335827766e-04 -2.050022197165843362e-04 -3.316166579210213920e-04 1.796880056484487925e-03 -2.730411229056847787e-04 1.379305203478468607e-03 -8.725233551492130382e-04 3.319851658980867994e-04 -5.602838259823227698e-05 1.750114820385573807e-04 1.081996673515262658e-03 -8.792047102925140895e-05 -3.180576184159924135e-04 -9.879885334059001524e-04 5.649446209119843212e-04 2.272126846630519398e-04 7.549774640549363966e-04 -1.587287994875472312e-03 8.794721661965019394e-04 3.530205804338250862e-04 7.704386629360518370e-05 -3.794335683812662580e-05 1.084998868358113926e-03 1.286324375452695788e-05 3.149747928544602911e-04 -1.051009237269778579e-03 -6.979827099091053368e-04 5.782503016001033426e-06 6.750197769893942750e-04 4.778202380284486792e-04 4.841464176992594810e-04 -5.510272827722878389e-04 -2.170327555889149922e-03 -2.036752770235857046e-03 -6.138806505215746749e-04 9.252940853757221249e-04 -8.806908398086647207e-04 -1.530016347815106072e-04 -2.000804942261996471e-04 2.649413700065027417e-04 3.249982558249768245e-04 -9.473676184638085522e-04 1.059670676096443123e-03 -2.980027746641279946e-04 1.530635533765391395e-04 -1.579382665899543132e-04 3.510000748921684966e-04 -4.908878745860086133e-04 -3.811830971412039884e-04 -5.949752440549695674e-04 2.140240526005299931e-03 2.190708244074197029e-03 -6.061228259931361476e-04
8.481155021699077201e-03 -1.073347398748962988e-03 2.767478796412914735e-02 9.651175908581194340e-03 -1.393328316498180543e-02 1.589911663665804706e-02 3.913911371962179760e-03 -1.519592384109937598e-02 2.667631609476714752e-02 -1.077897937818723777e-02 -3.313385656672826474e-02 -7.190759110142204077e-03 -3.265063882857954097e-02 -1.501780843057167088e-02 4.460235563317597324e-02 4.427623158350205840e-02 2.940224185048723703e-03 7.882652377578769007e-03 -2.763003495272070217e-02 -3.353476882156899291e-02 2.113873358541983744e-02 5.664436825911682051e-03 -7.600217756550787553e-03 -4.852947815324797076e-03 -2.946109515407069682e-02 3.476369493256642462e-02 2.398886276917369317e-02 -2.812954151309460509e-03 4.341079294826827306e-02 2.641585803159180595e-02 -2.564200486553162850e-02 -7.319179800221354767e-03 1.807993862069458973e-02 -3.143278372410035493e-02 2.209316919153395987e-03 -1.166164270021187183e-03 4.284167779879571696e-03 7.439144847873177015e-03 -1.091333186365207875e-02 -2.471757155240824743e-03 -1.108968343362132670e-03 -4.645898167086363710e-03 -3.474967967079175407e-02 -5.710880494868666307e-02 -9.733992553034709729e-04 1.937932129859923705e-02 2.896863667899898971e-03 1.055836483056251350e-02 -4.755647494066796849e-02 -6.464766662876343488e-03 -2.318845944025134387e-02 2.946608284949019801e-02 -2.522778184929736281e-03 -2.707277074362027247e-02 7.828661416719930478e-04 -2.988879339544356448e-03 -5.130938208346355611e-03 7.822270949823352873e-04 -5.726489662560663857e-02 -4.115240993223196614e-02 3.909249447254842247e-02 3.805062704579485061e-02 1.346881183830246805e-02 1.050422374625887591e-02 -2.703938193740661189e-02 2.148461293945157224e-03 -1.821118346215057707e-02 -8.506219598863249548e-03 -3.725324027576404351e-02 1.007275465952123424e-02 -2.183022131725823739e-02 -2.248867307798789808e-02 -1.046437932503130851e-02 -4.739530768200303328e-03 5.384323905002956576e-04 -7.679931284020576239e-03 2.972253745955751383e-02 4.900382478738068287e-03 7.344024406789199932e-02 -3.649868242557268556e-04 -3.092908771474793886e-02 3.246226152771458651e-02 2.514109180614095343e-03 3.902001862405078333e-03 7.189468795864315497e-03 3.339522485648763889e-02 -7.570145719728490694e-03 -9.275803113229277516e-03 1.357865916051601181e-02 -7.059117367429210491e-03 2.629970063842424280e-02 3.666905007757100682e-02 -3.066578384352595596e-02 -2.099399045414909737e-02 -3.314733254978504545e-02 -7.717466918948088714e-03 1.473575271333055908e-02 -1.856952510120973843e-02 -5.389189812473776237e-02 3.207683383950142575e-02 3.157640847269496676e-02 -1.641180547040859902e-02 5.555051378407719308e-03 -4.436608711262131355e-02 -3.434590947257837312e-02 -2.251341311187760735e-02 1.168991329094976224e-02 1.921431399514469257e-02 9.722512269948918248e-03 8.458681862735212276e-03 -2.177451593734582372e-02 -2.758476138061260671e-02 5.421625771340616434e-02 2.135626142676174191e-02 4.633116263716811033e-03 1.520384921416581721e-02 -2.563256047997921824e-02 3.148835710332784782e-02 1.345558570807176696e-02 -2.994278408237408245e-03 7.378816749257405966e-03 1.962997682713620018e-02 -1.863276354025280440e-02 1.125556531500259728e-02 3.410093298373323423e-02 4.166718262451377282e-03 4.397150493343873756e-02 9.782719258654462915e-03 -6.401531597588395670e-03 8.028412739087440950e-03 -3.236984385171529088e-02 1.555168212465870246e-02 -4.459274145234275871e-02 -4.521617055142015257e-02 -2.080452938520009967e-03 8.983663386247868476e-02 4.825742219075995765e-02 -7.099251803477537974e-04 -4.621773186396312474e-03 1.023313354684530704e-02 -1.069515611975520829e-02 4.894528971507217108e-03 8.186957021715587576e-03 1.059162966080566884e-02 4.216232952679740270e-02 -3.985290503162800674e-02 2.882591773758099926e-02 -5.011656280370238581e-02 4.370027984373656832e-02 -2.634879884020646656e-02 -5.975490707359593784e-02 2.633375849848253181e-02 3.565996554919131922e-02 -1.588852578911318161e-02 -3.135753281437015511e-02 -5.239663161347723683e-03 4.237307505797698916e-03 -2.679434070260973064e-02 7.997633425819305683e-03 2.245212718637158527e-04 -1.468038586894157733e-02 1.914540696714126314e-02 -2.561500117241774857e-03 6.265746155952482688e-03 2.180289676301149643e-02 -6.067174198339425617e-02 -5.145274500940241053e-02 2.896818202265805803e-02 -3.560827313408332188e-03 -5.747014590604693565e-03 7.788326360739809828e-02 4.024291863995198282e-02 4.631323768529888724e-02 2.129754632447637686e-02 -1.898878740378111621e-02 -1.318968627415091632e-02 -8.936086163610915817e-03 4.589423177544646459e-02 5.356194028675415747e-02 -2.178381925787538712e-02 -1.057243382920889097e-01 -8.182888470821909899e-02 -2.037675663330345156e-03 1.933091203547795955e-02 1.875881394167437308e-02 9.341919576738855202e-03 1.922566030690259567e-02 3.214705939658064893e-02 1.930154560951807818e-02 2.631770842835735869e-02 8.939419417939184443e-04 -3.465077701704060570e-02 1.135509568867918220e-02 -3.232099785463789926e-02 -2.996441432068099736e-02 2.382491164253207339e-02 1.791006768156768250e-02 -3.573818494086128394e-02 -2.121666756810714274e-03 -6.349540027177715679e-03 6.367239403093961220e-03 -3.121031674313607535e-02 5.536486584975870012e-02 1.554833265116694653e-02 -3.530412831057407747e-02 4.927588363420696421e-03 -1.598013022948192516e-02 -1.197641717090527393e-02 1.918704152032055590e-02 -3.203119815813858240e-02 2.191170167688832188e-02 -7.773510581104757164e-03 2.327592934450044976e-03 5.094224923441288688e-02 5.585644853569544238e-02 -2.897102807837800484e-02 1.275107564391773744e-02 -1.196457026966958181e-04 1.202639110005140335e-03 2.736125096503135186e-03 -6.499134301027499963e-03 -3.769389519263687677e-02 -2.893264957292850104e-02 -4.751954370661384125e-02 -2.620783546203955816e-02 3.926008626142445113e-02 3.276650286172109322e-02 -2.847604419434578496e-02 1.182911301300316326e-02 -1.063048980072740270e-02 1.786096142211358873e-02 -2.270098067567266360e-03 -9.211985653067421981e-03 -7.671675768129633879e-03 3.846928175777201281e-02 3.607654743264830655e-02 -1.738011479769413156e-02 2.579818861532100216e-02 -2.651107399528104466e-02 4.214600954758416368e-02 -4.052096797581069415e-02 4.931001904307330541e-02 -9.026230900828565926e-03 2.975374736558819913e-02 -4.234853021276628604e-02 1.388234247247830191e-02 6.470167977541702725e-03 1.775435887723121609e-02 4.140831527846641769e-02 -3.505960939035745322e-02 2.335704576399320550e-04 5.150299501229882448e-02 -2.174662446050488682e-02 2.739529741191576787e-02 -1.192815016196777621e-02 2.150365255245498264e-02 -2.899590134136891678e-02 2.892720218591657635e-02 3.547065941843171883e-03 -4.385212202754918201e-03 -1.470097786342886882e-02 -3.792087771527501844e-02 -4.141277492290214995e-02 3.823424940401218275e-02 1.371250626691239427e-02 -9.021570373568356177e-04 6.991633683184192948e-03 -2.260800724666746711e-02 -1.869305113080820240e-03 1.262169848827173445e-02 -1.443479409614015566e-02 1.059791032425003859e-02 -7.081886059602459163e-03 -4.321199118180687332e-02 -1.291300081594023465e-02 -1.273740197336060628e-02 5.692229605164000547e-03 -5.186591774752185094e-03 -1.848001658235640110e-02 -2.448709071920278368e-02 -5.532261631579407819e-03 1.266855299269370894e-03 -2.697339698182209256e-02 -1.706933172306187435e-02 2.872925120481047839e-02
1.834088584968509433e-02 -3.777204875662235149e-03 5.616358245852996062e-02 2.054392724013094987e-02 -2.950212488300722746e-02 3.253924385937159020e-02 8.602609666506033301e-03 -2.981860373459243110e-02 5.269159391444794976e-02 -2.369628132390123182e-02 -6.544848180613350996e-02 -1.595148020375355274e-02 -6.652792635170880209e-02 -3.109203902031416888e-02 8.897477605423274871e-02 8.841366070169504043e-02 8.138364622693981809e-03 1.445624514158581550e-02 -5.715626500286048739e-02 -6.349516405096138072e-02 4.284142069381323414e-02 1.327376993028282250e-02 -1.766171538675100766e-02 -7.528881884803511129e-03 -5.923696706124990247e-02 6.882426841981097165e-02 4.745375432842174196e-02 -2.765766391573191638e-03 8.628651600998923921e-02 5.144764942273962610e-02 -5.286946044349231932e-02 -1.319085747726991484e-02 3.755388177576789166e-02 -6.502206226642430476e-02 5.929920354131128918e-03 -1.724309489302771736e-03 1.148924929359848926e-02 1.218728097959930444e-02 -2.176467139641312734e-02 -7.354261348100860594e-03 2.023186776332558195e-04 -6.731795613096881910e-03 -6.832641171450537509e-02 -1.140372039007012533e-01 -1.642837097765537276e-03 3.920126654339673583e-02 3.826835313550584153e-03 1.962877239861232984e-02 -9.622238429868328058e-02 -1.443085322161054979e-02 -4.438384491200416532e-02 5.797273227668613138e-02 -6.696874539602390777e-03 -5.389646758161890233e-02 -2.582787405338762138e-04 -5.860348271871335807e-03 -9.251827615372160141e-03 -8.662236399007593917e-04 -1.155746481406965814e-01 -8.341472100750481344e-02 7.743418826623278683e-02 7.250798161926219620e-02 2.630274630243680661e-02 1.986075331441626221e-02 -5.505617771429219265e-02 3.411982895059809725e-03 -3.580140513859093182e-02 -1.704427710126721687e-02 -7.622249739543891789e-02 2.059122956162484294e-02 -4.279127706552859206e-02 -4.446238336213698128e-02 -1.922059176437446171e-02 -9.878451790687400869e-03 2.177827230596007368e-03 -1.418926374973124120e-02 6.051543361388050241e-02 8.450701377080246934e-03 1.478180486702500851e-01 7.313989122314814000e-04 -5.991124336008019080e-02 6.666508124555840797e-02 6.378823672287382493e-03 8.353915972821370287e-03 1.401997637942352382e-02 6.651027278763908812e-02 -1.710427329746117345e-02 -1.930451575451649221e-02 2.695208386191796229e-02 -1.338420744697892129e-02 5.329957065094968749e-02 7.576833041035786753e-02 -6.158465611864097355e-02 -4.040348846618680573e-02 -6.490716510583131871e-02 -1.674801817192305212e-02 2.923831631938407505e-02 -3.661614092170259460e-02 -1.082008043122122953e-01 6.464152211824668315e-02 6.349495304680169427e-02 -3.386163451194689616e-02 1.073908867282176438e-02 -8.868029647064115673e-02 -6.856880980705779005e-02 -4.520976320381337593e-02 2.312574186751122779e-02 3.762164037003650624e-02 1.944085251662252059e-02 1.742236143991754416e-02 -4.358104597510030487e-02 -5.533465868346338495e-02 1.087534327234163933e-01 4.176151853390822760e-02 9.541071886072696046e-03 3.061070106779530467e-02 -5.448013452996302436e-02 6.160118669925471885e-02 2.553771236168487363e-02 -5.736478848161928427e-03 1.602945159375312317e-02 3.981339007617243353e-02 -3.707157899585693250e-02 2.349468714891383980e-02 6.952320341047830976e-02 8.479371221966893954e-03 8.685827022686275212e-02 1.881607735041771270e-02 -1.257501110696851963e-02 1.634091197949823562e-02 -6.497258400056643568e-02 3.136836269185293985e-02 -8.775229070325148151e-02 -9.099985569611547531e-02 -4.166930839143159586e-03 1.789173579281673199e-01 9.619156923856332642e-02 -2.094819664488792050e-03 -1.096570063214167591e-02 2.095169376592317598e-02 -2.102927671093858183e-02 1.079459343598494596e-02 1.476524517105617246e-02 2.084627589259993585e-02 8.367455880714856631e-02 -7.950106069649472140e-02 5.657284828043659952e-02 -1.014266772983723197e-01 8.896313352303882038e-02 -5.347360758330980957e-02 -1.192004244955638947e-01 5.142058938605791746e-02 7.016995736971622100e-02 -3.176093797989883866e-02 -6.294802603873093927e-02 -9.266320222411550747e-03 8.148887014189455658e-03 -5.443780727317049789e-02 1.544630006568309920e-02 -1.508094593422130687e-04 -2.971694806817506279e-02 3.924784110012115995e-02 -4.709311105738971277e-03 1.342062304684403171e-02 4.326875667203626541e-02 -1.215982944797962956e-01 -1.034335659714967909e-01 5.830638619417907731e-02 -7.417420316380714251e-03 -1.197906048858008062e-02 1.582155493232605126e-01 8.116169269575623790e-02 9.315973992360654377e-02 4.385705832731627563e-02 -3.788357957766533279e-02 -2.643536409411486460e-02 -1.870317343645941377e-02 9.149769989242396984e-02 1.064958052123176901e-01 -4.274361252369773129e-02 -2.114056720302402437e-01 -1.635247059445582574e-01 -2.338356300533127666e-03 3.844792494621485784e-02 3.724256296412196965e-02 1.895285300933977762e-02 3.877123463848811125e-02 6.451021461967020032e-02 3.815607599493678337e-02 5.415184490565056602e-02 3.317344778826411197e-03 -7.118464042146141479e-02 2.107860984329158055e-02 -6.585554134441816421e-02 -5.967074786114152235e-02 4.801594733736996162e-02 3.552728383257831163e-02 -7.060837209406781168e-02 -3.338036450432241807e-03 -1.355676705663969028e-02 1.295847709522977495e-02 -6.238272548228061126e-02 1.111087804541815577e-01 3.237165354730752592e-02 -7.147545435262767088e-02 1.046289103583408764e-02 -3.167225279732559934e-02 -2.496139746854745406e-02 3.692068653516371313e-02 -6.600532658194620261e-02 4.548196992500649211e-02 -1.421644205719272726e-02 5.261101023102024432e-03 1.012576960412811117e-01 1.110716652897851403e-01 -5.863002019584732938e-02 2.594979595028683306e-02 8.188634546261358603e-04 2.516235637048835037e-03 5.423111799987933093e-03 -1.257127903469643267e-02 -7.516780100439704460e-02 -5.860061459250687221e-02 -9.409633253726755464e-02 -5.227467646400538875e-02 7.999685533718961516e-02 6.643049314224903912e-02 -5.741315584461770954e-02 2.303160305453568618e-02 -2.234118108817851472e-02 3.610897116124353601e-02 -3.918946766287786238e-03 -1.913175147551282942e-02 -1.501034935376973321e-02 7.773407963128318998e-02 7.062536277448666633e-02 -3.481520930354256582e-02 4.995293396553743964e-02 -5.172870960553605651e-02 8.412002962303792575e-02 -8.122098875821345820e-02 9.866394006785797477e-02 -1.937945792390215194e-02 5.975134779052677231e-02 -8.418095027087509064e-02 2.874166344712791171e-02 1.264836376433522286e-02 3.534959311744068078e-02 8.190364337754728330e-02 -6.824076895105164742e-02 -8.602227141000187054e-04 1.030049737384138575e-01 -4.345231211937963800e-02 5.488257714576674079e-02 -2.497730408428772142e-02 4.282034617497968570e-02 -5.803283926355081584e-02 5.880541086894792990e-02 7.907181369833074860e-03 -8.979169902424404687e-03 -3.014697307604796012e-02 -7.677842774906551426e-02 -8.370483790988746120e-02 7.751155032549018886e-02 2.965235533926598513e-02 1.744536758796669631e-04 1.444314802073549779e-02 -4.585330820412175656e-02 -2.852819748201524102e-03 2.546939024048458858e-02 -2.876849526912080360e-02 2.088684328718632896e-02 -1.457576630737104049e-02 -8.523978048022007314e-02 -2.639059006293056550e-02 -2.510682187801237253e-02 1.110949378918622311e-02 -1.049628373180253732e-02 -3.720902184376163185e-02 -4.844031186636928860e-02 -1.063732827398264011e-02 3.033683319071144198e-03 -5.607201185299554719e-02 -3.636935765129883924e-02 5.838262593263031375e-02
2.781771210619267409e-02 -6.792201933374252334e-03 8.430339665205222044e-02 3.104859136788465368e-02 -4.481509856040118145e-02 4.916237496390555434e-02 1.361928225981887640e-02 -4.439818344779482978e-02 7.831786115097462420e-02 -3.659258737803424560e-02 -9.774709863578823210e-02 -2.466620234787712806e-02 -1.004589480366440829e-01 -4.795228834010641095e-02 1.333302201427648548e-01 1.330421548787317776e-01 1.315267413945364963e-02 2.112582905366985897e-02 -8.584578898786206225e-02 -9.256826917049239267e-02 6.477705891618366907e-02 2.085209921093755109e-02 -2.770822228259832085e-02 -1.016081549066509722e-02 -8.879172656747094661e-02 1.025189053775364539e-01 7.051264987475087953e-02 -1.994479278137217641e-03 1.288704848517530921e-01 7.649542834368058819e-02 -7.996098014773520002e-02 -1.889349584110232988e-02 5.678781628761352118e-02 -9.839633962211626061e-02 9.657600156782148587e-03 -2.157461049675633239e-03 1.870547255754386254e-02 1.650441663971036199e-02 -3.276599911160692213e-02 -1.232372915639255197e-02 1.423582026136401696e-03 -8.611688039794606134e-03 -1.016593207320202058e-01 -1.704015062728354568e-01 -1.817297788772596553e-03 5.848008449785361412e-02 5.123620025108075945e-03 2.859518515348713485e-02 -1.445581313670935286e-01 -2.284481757865016241e-02 -6.521122720400461537e-02 8.725234215339147670e-02 -1.074070450942365453e-02 -8.056119016864601856e-02 -1.217354388585231185e-03 -8.927786621230570513e-03 -1.327371384874514830e-02 -3.961648285384981177e-03 -1.739758946956306840e-01 -1.258459881709295680e-01 1.143973776869241926e-01 1.054108384854228059e-01 3.805176391647739631e-02 2.888541884729869599e-02 -8.348408922514621855e-02 4.559525552505353137e-03 -5.320954489517679131e-02 -2.581226898131161462e-02 -1.150517532421152789e-01 3.082060606561057639e-02 -6.347243424329454542e-02 -6.656009326900839962e-02 -2.794679635994417807e-02 -1.503436059179261673e-02 3.890221691853005138e-03 -2.023846062341311258e-02 9.090148340073697653e-02 1.192101858651778597e-02 2.221556200256667446e-01 2.546781275214979844e-03 -8.853041810105588549e-02 1.007347816146131336e-01 1.058048798360285321e-02 1.262482439818587293e-02 2.072657943065560338e-02 9.934227829790999442e-02 -2.665338936580733190e-02 -2.918520700241402852e-02 4.027656344342596395e-02 -1.954130037673869336e-02 8.161908191138150803e-02 1.158630367098365671e-01 -9.325759412143476423e-02 -5.887232980682417793e-02 -9.567068459678554349e-02 -2.598162435066183468e-02 4.331268609471872200e-02 -5.409490317382781299e-02 -1.625587142569556720e-01 9.701920682576015142e-02 9.540342738987366011e-02 -5.155545792799711563e-02 1.546498104355900453e-02 -1.325276479462955959e-01 -1.023267101989754485e-01 -6.790909971927017175e-02 3.453457379358514101e-02 5.618396759052924488e-02 2.897211085113679530e-02 2.666098873419346996e-02 -6.499357841006025982e-02 -8.339951626555319741e-02 1.631524940551261349e-01 6.191978852728562133e-02 1.439297283624836783e-02 4.619053782272710545e-02 -8.318971184937615226e-02 9.149214179673412217e-02 3.725876694149123786e-02 -8.367662782756912776e-03 2.466611944447051619e-02 5.989879839015457147e-02 -5.551739129287985852e-02 3.548184340011981824e-02 1.048323846292465028e-01 1.265603456360239049e-02 1.293460963907466232e-01 2.766229778209625817e-02 -1.883647395056476867e-02 2.477531032537523201e-02 -9.729929009283887209e-02 4.692703200406934949e-02 -1.308959989810321856e-01 -1.363505475805249778e-01 -6.684421384728580010e-03 2.668333416262579361e-01 1.432782945674442032e-01 -4.439657014839067106e-03 -1.735756642462189803e-02 3.149123871704435224e-02 -3.132839089198431043e-02 1.665365030325998558e-02 2.135051427512205807e-02 3.091792309914328379e-02 1.245345924484260181e-01 -1.186084495018173146e-01 8.388678222747183999e-02 -1.526188601024904001e-01 1.344060199654654175e-01 -8.085442476487834929e-02 -1.779145812809800886e-01 7.540565549160944958e-02 1.042349593202502728e-01 -4.762741738317458756e-02 -9.432851335649172775e-02 -1.315498336612581920e-02 1.198843333554007635e-02 -8.200130424167387244e-02 2.268196651138857170e-02 -6.351763488864023985e-04 -4.468856114164634213e-02 5.885527651872135557e-02 -6.613014788773029055e-03 2.025758220817700656e-02 6.471961855946326003e-02 -1.823618338745464362e-01 -1.554793404858035022e-01 8.733258753759619297e-02 -1.149875733537445571e-02 -1.895617908860629947e-02 2.386718624390040400e-01 1.222234361664987223e-01 1.401763172418907522e-01 6.736256145779068172e-02 -5.670439740212342150e-02 -3.959301273475190897e-02 -2.832426530111294138e-02 1.363114724022150559e-01 1.586084283023737884e-01 -6.278736010528658540e-02 -3.160361571240941081e-01 -2.445741044872327130e-01 -2.730851571847123542e-04 5.742603147432694816e-02 5.546627033871325690e-02 2.875679773240388121e-02 5.841780779943016311e-02 9.688940825912087385e-02 5.715960304363772171e-02 8.186092626809633732e-02 5.930714374263928133e-03 -1.073945056021963912e-01 3.044698307463499995e-02 -9.895019711920466365e-02 -8.909208364228236865e-02 7.226404573809794285e-02 5.298752868245968500e-02 -1.051455564571684709e-01 -4.638405090165867786e-03 -2.076602218162401300e-02 1.956271724407995100e-02 -9.333000696661349072e-02 1.664937768630814496e-01 4.939197811870195409e-02 -1.073797167773358346e-01 1.582929046468633735e-02 -4.714137823827094925e-02 -3.769023303038097211e-02 5.425942906945400296e-02 -9.959745120319331291e-02 6.923128704081052409e-02 -2.081031512666616651e-02 8.114608246967015132e-03 1.513970365970271348e-01 1.665548071610661041e-01 -8.883001482707580942e-02 3.916652856058384924e-02 1.712375813241785250e-03 3.726832916457833034e-03 8.148989058451126463e-03 -1.827739621474697151e-02 -1.121317182332206980e-01 -8.857560839417065457e-02 -1.405952277302095765e-01 -7.842451088845274476e-02 1.205317203872107862e-01 9.977240204527196288e-02 -8.681025265840346117e-02 3.432903003160378552e-02 -3.386784090139313003e-02 5.433197300639070609e-02 -5.706835561929685455e-03 -2.892856285371176936e-02 -2.229402242952004468e-02 1.169538396202485925e-01 1.052801609199855021e-01 -5.231930550707958316e-02 7.380456205251992308e-02 -7.663345896522515133e-02 1.257010495471731770e-01 -1.221449908634263948e-01 1.479627852261450882e-01 -2.973167699769296846e-02 8.940782211079197073e-02 -1.256614926480722483e-01 4.336098425847215859e-02 1.902558128964082149e-02 5.284688349917773115e-02 1.219979685487246474e-01 -1.009946806571141165e-01 -2.707878651956401560e-03 1.542409614861558476e-01 -6.507493040529623018e-02 8.217288760436911033e-02 -3.793445483337775509e-02 6.365493210167735838e-02 -8.678895285091434153e-02 8.824562541663250048e-02 1.234930714604352657e-02 -1.360610063273071275e-02 -4.562196970303544069e-02 -1.158019103038017139e-01 -1.261709487415428599e-01 1.170868608881851930e-01 4.541219198839982485e-02 1.278000160091121188e-03 2.177966674215932319e-02 -6.888861624318934340e-02 -3.825266524187274225e-03 3.820007568209150828e-02 -4.303617694528696219e-02 3.112280013645552651e-02 -2.201564694939021904e-02 -1.265267493340448413e-01 -3.932092252462381088e-02 -3.727227835499618419e-02 1.630980460076420294e-02 -1.593704701100885981e-02 -5.586001721673369835e-02 -7.245956825280998326e-02 -1.563241528630307173e-02 4.871510128586897977e-03 -8.477264230158906844e-02 -5.561524602533196582e-02 8.813198776692050818e-02