-9.057046631800000114e+02
-8.798012717000000293e+02
-8.943016323499999771e+02
-8.967492140499999778e+02
-8.857255661799999871e+02
-9.066003662199999553e+02
-8.917929090600000563e+02
-8.863306335600000239e+02
-8.767185633799999778e+02
-9.158485541200000171e+02
-8.994464304399999719e+02
-8.932256703399999651e+02
-8.911990871799999923e+02
-9.060452643600000329e+02
-8.923357531299999437e+02
-8.902283436999999822e+02
-9.002531065599999920e+02
-8.902754556300000104e+02
-9.003406636900000422e+02
-8.791022381200000382e+02
-8.955003285699999651e+02
-8.798319203999999445e+02
-8.912182516999999962e+02
-8.885071989499999745e+02
-9.002986527900000056e+02
-9.088685939499999904e+02
-9.056680664399999614e+02
-8.972446588599999586e+02
-8.933125907800000505e+02
-8.897167910099999517e+02
-8.885276820799999768e+02
-8.980082402599999796e+02
-8.949096765399999640e+02
-8.853390304099999639e+02
-8.958453923600000053e+02
-8.851566942099999551e+02
-9.100957130399999642e+02
-9.062546184399999447e+02
-9.073390223200000264e+02
-8.854546918600000254e+02
-8.970129054799999722e+02
-8.953581203600000435e+02
-9.065917347500000005e+02
-9.059913586300000361e+02
-8.823581744099999469e+02
-9.130814293700000235e+02
-8.863395573599999580e+02
-8.971628037399999585e+02
-8.984579548599999725e+02
-8.955941750900000216e+02
-8.876777147999999897e+02
-8.991429184700000405e+02
-9.050005245400000149e+02
-8.862281836299999895e+02
-9.014889614100000017e+02
-8.865030913800000008e+02
-8.926552963300000556e+02
-8.892586066500000470e+02
-8.912143438800000013e+02
-8.819625627499999609e+02
-8.923616276999999855e+02
-9.049696166300000186e+02
-8.890132293100000425e+02
-9.005992390699999532e+02
-9.093248177200000555e+02
-8.958044968000000381e+02
-9.083480885799999669e+02
-8.888843033299999661e+02
-8.911773748699999942e+02
-8.838070410899999843e+02
-9.038147457000000031e+02
-8.905047839100000147e+02
-8.926909648800000241e+02
-9.054091102400000182e+02
-8.942738457699999799e+02
-8.877292729900000268e+02
-9.008267254700000422e+02
-9.031479937999999947e+02
-9.000108782700000347e+02
-8.897319885900000145e+02
-8.972078544800000373e+02
-8.969931092399999670e+02
-9.125089943499999663e+02
-8.884855426200000466e+02
-8.880125086299999566e+02
-8.932577209999999468e+02
-9.030381298199999947e+02
-9.041862304100000074e+02
-8.806536141399999451e+02
-9.083404087200000276e+02
-8.889809860200000458e+02
-8.936815871500000412e+02
-8.778161320599999726e+02
-8.961920951399999922e+02
-8.843873867700000346e+02
-9.107349246100000073e+02
-8.875262369099999660e+02
-8.856225004499999613e+02
-9.108011886299999560e+02
-8.847423834200000101e+02
-8.939357064499999979e+02
-8.961709100000000490e+02
-8.931965404000000035e+02
-9.077987025099999983e+02
-9.051240139699999645e+02
-8.998157336499999701e+02
-8.984744162700000061e+02
-9.069620318900000484e+02
-8.869220973999999842e+02
-9.033980917200000249e+02
-9.149543323899999905e+02
-8.916865857400000550e+02
-9.047252124300000560e+02
-8.953068064399999457e+02
-9.104526576800000157e+02
-8.825610125599999947e+02
-8.933402698099999952e+02
-9.094399286899999879e+02
-9.015735344600000190e+02
-8.888378868300000022e+02
-8.989759226300000137e+02
-8.994301233899999488e+02
-9.088685525299999881e+02
-8.835632450900000094e+02
-8.994914785199999869e+02
-9.078181044299999485e+02
-8.962087268999999878e+02
-8.782142269800000349e+02
-8.978793911899999785e+02
-9.043034840100000338e+02
-8.971892438700000412e+02
-9.024229203600000346e+02
-8.944693525999999792e+02
-8.949949679600000536e+02
-9.057129341700000396e+02
-8.957030923099999882e+02
-8.918876379600000064e+02
-9.062654909399999497e+02
-8.939535067399999662e+02
-8.982753189100000100e+02
-8.858594940200000565e+02
-8.958784692100000484e+02
-8.919148890999999821e+02
-8.927472050000000081e+02
-8.946962044000000560e+02
-8.951248746899999560e+02
-8.934694480199999589e+02
-8.871616779299999962e+02
-9.024449690500000543e+02
-8.948146485900000471e+02
-8.827762902800000120e+02
-8.963016468600000053e+02
-8.954776081600000452e+02
-9.124471451499999830e+02
-8.946598971700000220e+02
-8.980419909400000051e+02
-8.904556419799999958e+02
-9.047326065600000220e+02
-8.911794032300000481e+02
-9.030412303800000018e+02
-9.060586236799999824e+02
-9.172572988199999600e+02
-8.966617083500000263e+02
-8.965890018500000451e+02
-9.030137008299999479e+02
-8.845383214900000439e+02
-8.899951758299999938e+02
-8.901845608300000094e+02
-9.036838182300000426e+02
-8.921574865100000125e+02
-8.828038031800000454e+02
-9.048777786000000560e+02
-8.971731425299999501e+02
-8.978510642600000438e+02
-9.050701080400000365e+02
-8.953790007100000139e+02
-8.834397277199999508e+02
-9.089171836199999461e+02
-9.100196994599999698e+02
-9.046672474499999907e+02
-8.985919667800000070e+02
-9.019564181499999904e+02
-8.936685689299999922e+02
-8.992430283099999997e+02
-9.063481255200000533e+02
-8.922460038299999496e+02
-9.107830943300000399e+02
-8.853021657399999640e+02
-8.935669967400000360e+02
-8.854619823799999949e+02
-9.119679796799999849e+02
-9.071309287200000426e+02
-9.023283798200000092e+02
-8.939902609900000243e+02
-8.909827083100000209e+02
-9.011491339299999481e+02
-8.817604205699999511e+02
-9.015413241100000050e+02
-8.872087843299999577e+02
-8.963776663800000506e+02
