1.642517999999999923e+00 -2.399144000000000165e+00 1.458150999999999975e+00 -7.752839999999999732e-01 -1.320194000000000090e+00 9.318629999999999969e-01 -3.799954000000000054e+00 -2.910013999999999879e+00 4.319450000000000234e-01 1.790561999999999987e+00 -2.344450999999999841e+00 8.888220000000000010e-01 2.209486000000000061e+00 -2.220673000000000119e+00 3.481759999999999855e-01 -7.657899999999999707e-01 -3.735342000000000162e+00 7.356099999999999861e-01 -1.304718999999999962e+00 -8.712220000000000519e-01 3.108659999999999757e-01 -1.222946000000000089e+00 -5.074760000000000382e-01 5.688819999999999988e-01 1.962016999999999900e+00 3.240820999999999952e+00 9.552410000000000068e-01 1.949381999999999948e+00 4.643200000000000105e-01 9.313439999999999497e-01 -5.741669999999999829e-01 1.157329999999999970e+00 -8.598540000000000072e-01 -8.842029999999999612e-01 2.591323000000000043e+00 2.949035999999999991e+00 2.857150999999999996e+00 -2.063079999999999914e-01 -2.144499999999999851e+00 -6.539000000000000368e-02 2.041818999999999829e+00 6.391369999999999552e-01 -6.554900000000000171e-01 2.134393999999999902e+00 -1.369431999999999983e+00 -4.226699999999999902e-01 1.801042999999999950e+00 -1.734545999999999921e+00 -8.221180000000000154e-01 -3.486641999999999797e+00 -2.136877000000000137e+00 -1.939424000000000037e+00 -1.833337999999999912e+00 2.286080000000000056e-01 -3.331060000000000132e-01 -2.855370999999999881e+00 1.020479999999999998e-01 -1.419485000000000108e+00 -2.372100999999999793e+00 -3.055823000000000178e+00 4.283899999999999930e-01 -4.365829999999999989e-01 -5.163560000000000372e-01 -5.759239999999999915e-01 -1.651116000000000028e+00 -8.810360000000000413e-01 1.977586000000000066e+00 -1.937351000000000045e+00 1.166566999999999910e+00 2.282802999999999916e+00 8.041430000000000522e-01 2.239062000000000108e+00 -8.155419999999999892e-01 2.607794999999999863e+00 -6.874449999999999728e-01 -1.039420999999999928e+00 -2.331986000000000114e+00 -2.780130000000000101e-01 6.822899999999999521e-01 1.678455999999999948e+00 -1.020321000000000033e+00 6.531670000000000531e-01 3.728819999999999912e-01 -2.261025000000000063e+00 -4.711369999999999725e-01 9.219950000000000090e-01 1.684150999999999954e+00 2.876555000000000195e+00 -3.836629999999999763e-01 -1.874883000000000077e+00 4.382059999999999844e-01 6.338799999999999990e-01 -1.469208999999999987e+00 -1.888932000000000055e+00 -1.004442000000000057e+00 -1.703983999999999943e+00 -1.362834000000000101e+00 1.893960000000000088e-01 7.215730000000000199e-01 -7.173150000000000359e-01 7.749300000000000632e-02 -1.187410999999999994e+00 4.126619999999999733e-01 -1.922036000000000078e+00 -2.280368999999999868e+00 2.298843000000000192e+00 3.749282000000000004e+00 -4.318819000000000408e+00 -4.902309999999999723e-01 -1.124179999999999957e+00 5.354919999999999680e-01 8.982599999999999474e-01 -8.164130000000000553e-01 5.119190000000000129e-01 1.086470999999999965e+00 -8.771870000000000500e-01 4.007149999999999879e-01 -9.782509999999999817e-01 4.954089999999999883e-01 1.439279999999999893e+00 -1.380867000000000067e+00 9.172379999999999978e-01 -2.513900000000000162e-02 -1.032958999999999961e+00 1.280397999999999925e+00 1.140560000000000018e+00 -1.101261000000000045e+00 1.216320999999999986e+00 3.578533999999999882e+00 -1.864174999999999915e+00 -1.219392000000000031e+00 1.560554999999999914e+00 1.683689999999999909e-01 1.243684000000000012e+00 6.167550000000000532e-01 -4.173400000000000026e-02 -5.543569999999999887e-01 -1.805839999999999945e-01 1.928916000000000075e+00 3.871649999999999814e-01 1.478326000000000029e+00 3.110100000000000087e-01 -6.650810000000000333e-01 4.158250000000000002e-01 2.859899999999999942e-02 2.131432000000000215e+00 -6.458139999999999992e-01 3.469019999999999881e-01 9.860259999999999581e-01 2.525799999999999920e-02 -2.375760000000000094e-01 1.169019999999999948e+00 -9.757780000000000342e-01 6.975339999999999874e-01 4.113439999999999874e-01 -9.137049999999999894e-01 -8.757930000000000437e-01 -3.746360000000000245e-01 -7.487310000000000354e-01 -4.396800000000000014e-02 -4.131989999999999830e-01 -3.793699999999999850e-01 -7.057630000000000292e-01 1.599148000000000014e+00 -1.098697000000000035e+00 -3.230950000000000211e-01 -1.086611999999999911e+00 5.025220000000000242e-01 2.040179000000000187e+00 -6.007169999999999455e-01 1.148827999999999960e+00 4.371519999999999850e-01 2.291072999999999915e+00 2.055286999999999864e+00 9.537520000000000442e-01 1.242199999999999971e+00 3.161398000000000152e+00 -8.999949999999999894e-01 -4.575200000000000100e-02 1.845580999999999916e+00 2.694250000000000256e-01 1.927079999999999904e-01 1.353788999999999909e+00 3.788549999999999973e-01 2.973389000000000060e+00 3.998709999999999765e-01 8.549970000000000070e-01 5.323320000000000274e-01 2.446230000000000071e-01 9.379849999999999577e-01 -8.709590000000000387e-01 -1.894320000000000004e+00 -6.995519999999999516e-01 -7.446220000000000061e-01 -1.032140000000000002e-01 -1.355596999999999941e+00 -1.479551000000000061e+00 -2.819862999999999786e+00 -3.662099999999999800e-01 8.062639999999999807e-01 -1.841105999999999909e+00 3.503699999999999870e-02 2.293969999999999898e-01 1.401327999999999907e+00 -2.552269999999999817e-01 1.579701000000000022e+00 5.560669999999999780e-01 -1.588997999999999911e+00 2.810500000000000220e-01 -1.087372999999999923e+00 5.386879999999999447e-01 1.950714000000000059e+00 -3.079470000000000263e-01 1.754463000000000106e+00 2.434165000000000134e+00 7.220990000000000464e-01 -6.940000000000000335e-02 1.478758000000000017e+00 4.118709999999999871e-01 1.635999999999999954e-01 -1.367080999999999991e+00 -6.673700000000000188e-01 1.356201999999999908e+00 2.905403999999999876e+00 -2.410000000000000033e-04 2.147235999999999922e+00 4.834200000000000302e-02 -1.066122999999999932e+00 -1.082583999999999991e+00 -2.009066999999999936e+00 1.529805000000000081e+00 2.840059999999999807e-01 1.567801999999999918e+00 -9.440269999999999495e-01 -1.838459000000000065e+00 -6.606539999999999635e-01 6.438399999999999679e-01 -1.641140000000000099e-01 -8.523530000000000273e-01 -3.129322999999999855e+00 7.807169999999999943e-01 7.288470000000000226e-01 1.076710000000000028e-01 9.990799999999999681e-02 -3.909480000000000177e-01 -3.989820000000000033e-01 -2.534089999999999954e+00 -1.533525999999999945e+00 -9.083320000000000283e-01 -6.252159999999999940e-01 1.162948000000000093e+00 4.487419999999999742e-01 5.681450000000000111e-01 -2.382318999999999853e+00 -1.736407999999999952e+00 -1.507052000000000058e+00 -4.514170000000000127e-01 1.409415000000000084e+00 -1.130732000000000070e+00 -4.433489999999999931e-01 -7.675659999999999705e-01 -1.152041000000000093e+00 -2.076300000000000021e-02 1.413296000000000108e+00 4.603639999999999954e-01 -9.697270000000000056e-01 2.553830000000000267e-01 2.529478000000000115e+00 1.693599000000000077e+00 1.710374000000000061e+00 -1.187553000000000081e+00 -2.891900000000000137e+00 3.853974000000000011e+00 8.704760000000000275e-01 1.172968000000000011e+00 -1.750148000000000037e+00
-1.314284999999999926e+00 3.573062999999999878e+00 1.510421999999999931e+00 7.061370000000000147e-01 -4.094743000000000244e+00 -1.295295000000000085e+00 -3.133439999999999781e+00 2.657505000000000006e+00 -8.053839999999999888e-01 6.739180000000000170e-01 3.590999999999999748e-01 -3.650729999999999809e-01 -6.174570000000000336e-01 2.108700000000000019e-01 5.655480000000000507e-01 -8.565100000000000491e-02 -1.657127999999999934e+00 -1.209019999999999956e-01 -4.035936000000000412e+00 3.517008000000000134e+00 -6.123954000000000342e+00 9.651110000000000522e-01 3.277399999999999758e-01 4.579969999999999875e-01 -1.678080999999999934e+00 1.150900000000000013e-02 -1.933970000000000133e-01 4.644899999999999723e-02 3.760069999999999801e-01 1.144231999999999916e+00 3.223624000000000045e+00 -5.768349999999999866e-01 -2.118469999999999853e+00 -1.820222000000000007e+00 1.337240999999999902e+00 7.735649999999999471e-01 3.700577000000000005e+00 1.411790000000000100e+00 -1.971722999999999892e+00 4.661074000000000161e+00 3.083454000000000139e+00 -3.454997999999999791e+00 1.486091999999999969e+00 -2.296759000000000217e+00 -6.802650000000000086e-01 -5.046000000000000485e-01 -1.522048000000000068e+00 -5.017509999999999470e-01 -2.015922000000000214e+00 3.330069999999999975e-01 -9.872140000000000359e-01 -2.220995999999999970e+00 1.280663000000000107e+00 5.208900000000000335e-02 -8.129969999999999697e-01 -3.018912999999999958e+00 5.720070000000000432e-01 1.782470999999999917e+00 7.844459999999999766e-01 -2.348139999999999949e-01 2.172927000000000053e+00 5.223202999999999818e+00 1.102530000000000010e+00 -2.914036999999999988e+00 -9.404620000000000202e-01 1.103005000000000013e+00 -9.180040000000000422e-01 9.661549999999999860e-01 -3.582170000000000076e-01 1.502000999999999920e+00 2.064169999999999894e-01 2.945409000000000166e+00 -4.036450000000000315e+00 3.052798999999999818e+00 -4.138885000000000147e+00 9.358560000000000212e-01 2.348088000000000175e+00 1.522008000000000028e+00 -2.100480000000000125e-01 1.999120000000000064e-01 -4.584456999999999560e+00 2.276460999999999846e+00 -6.922530000000000072e-01 5.653589999999999449e-01 -9.343449999999999811e-01 -1.059785999999999895e+00 4.981690999999999647e+00 2.956634000000000206e+00 -2.847367999999999899e+00 -6.246089999999999698e-01 -2.937342999999999815e+00 -3.055394000000000165e+00 -3.893499999999999739e-01 4.998471999999999582e+00 9.837559999999999638e-01 2.724098000000000130e+00 6.686652999999999736e+00 -3.483833000000000180e+00 1.823380000000000001e+00 4.597169999999999868e-01 -1.572505000000000042e+00 -1.019511000000000056e+00 -1.377777999999999947e+00 1.603059000000000012e+00 -1.775975999999999999e+00 -2.462146000000000168e+00 -3.948220000000000063e-01 -5.056070000000000286e-01 -1.086299999999999939e-02 1.785795000000000021e+00 3.672064999999999912e+00 -2.517789999999999750e-01 1.140811000000000019e+00 -1.282310000000000116e-01 -4.092735000000000234e+00 1.487020000000000008e-01 2.133570999999999884e+00 -3.738230000000000164e-01 1.004517000000000104e+00 2.521364000000000161e+00 -7.194409999999999972e-01 -1.069784000000000068e+00 -2.931279999999999997e-01 -2.966546999999999823e+00 -2.359106000000000147e+00 -6.743787000000000198e+00 -1.334419999999999940e+00 1.065493999999999941e+00 -9.809320000000000261e-01 1.715135000000000076e+00 6.583360000000000323e-01 7.816400000000000015e-01 4.985879999999999757e-01 9.527430000000000065e-01 8.113900000000000279e-02 -1.565763000000000016e+00 -6.011020000000000252e-01 -2.523947999999999858e+00 -5.519739999999999647e-01 1.557099999999999977e-02 -3.009799999999999975e-02 7.452550000000000008e-01 3.003582999999999892e+00 8.228640000000000398e-01 9.361030000000000184e-01 -9.531100000000000128e-01 1.069248999999999894e+00 -3.246405999999999903e+00 9.222120000000000317e-01 3.841975999999999836e+00 1.290256000000000070e+00 3.546043000000000056e+00 1.373353999999999964e+00 3.081857999999999986e+00 8.792510000000000048e-01 -2.894931999999999839e+00 9.442190000000000305e-01 -3.122550000000000048e-01 -1.192703000000000069e+00 9.862429999999999808e-01 5.078249999999999709e-01 2.798912000000000067e+00 -8.864659999999999762e-01 1.719273000000000051e+00 2.202220000000000011e-01 -2.801550000000000207e+00 1.091777999999999915e+00 1.612649999999999917e-01 2.868447000000000191e+00 3.373700000000000310e-02 3.918039999999999967e+00 -1.149272000000000071e+00 -6.826980000000000270e-01 -1.394219999999999904e-01 -1.950793999999999917e+00 -1.700442999999999927e+00 -3.679629999999999845e-01 -2.883178000000000019e+00 1.022630000000000067e-01 3.316625999999999852e+00 -1.586521000000000070e+00 -6.661519999999999664e-01 -2.150630000000000042e-01 4.045414000000000065e+00 -4.801703999999999972e+00 2.356676000000000215e+00 7.535400000000000431e-02 -1.823231000000000046e+00 2.224056000000000033e+00 2.156181000000000125e+00 1.537226999999999899e+00 -2.365480000000000083e-01 1.029329999999999967e-01 2.153214999999999879e+00 -6.074201000000000406e+00 2.235959999999999892e-01 -1.819811000000000067e+00 -3.344420000000000170e-01 2.820200999999999958e+00 -6.252900000000000125e-02 -2.485940000000000094e-01 -2.146062999999999832e+00 -3.298070000000000168e-01 -3.905330000000000190e-01 2.018666000000000071e+00 -1.129809000000000063e+00 -1.858851000000000031e+00 1.222749999999999948e-01 -1.953170000000000073e+00 6.330689999999999928e-01 1.973020000000000052e-01 -3.992389999999999883e+00 -2.107934000000000196e+00 -1.025617999999999919e+00 -1.464692000000000105e+00 -1.173842999999999970e+00 2.691743000000000219e+00 -9.657200000000000506e-02 1.479673999999999934e+00 -1.815090000000000037e-01 -1.898536999999999919e+00 -5.460700000000000554e-01 -4.407770000000000188e+00 -2.245254999999999779e+00 -7.821329999999999671e-01 3.235210000000000030e-01 1.159877000000000047e+00 2.427820000000000089e+00 2.175050000000000039e-01 1.977038000000000073e+00 -1.503099999999999992e-01 3.788065000000000015e+00 -2.508471000000000117e+00 3.326858000000000093e+00 1.561960000000000015e-01 -1.253095999999999988e+00 -1.351800000000000050e-02 -2.896739999999999871e-01 4.067259999999999764e-01 1.871220000000000105e-01 1.952428999999999970e+00 2.971553999999999807e+00 1.721599999999999867e-02 1.057271000000000072e+00 -8.009880000000000333e-01 -1.042964000000000002e+00 1.684479000000000060e+00 8.337379999999999791e-01 -5.703899999999999942e-02 1.434107000000000021e+00 -2.891000000000000236e-01 -2.738900999999999808e+00 -8.754420000000000535e-01 8.717730000000000201e-01 5.610570000000000279e-01 -6.797950000000000381e-01 -8.235780000000000323e-01 4.300050000000000261e-01 3.383510000000000129e-01 1.229173999999999989e+00 -6.147150000000000114e-01 -5.729189999999999561e-01 -1.701199999999999934e-02 -1.836066999999999894e+00 -2.475315000000000154e+00 -2.434253000000000000e+00 1.768629999999999924e-01 6.563499999999999890e-02 2.469500000000000028e-01 9.454430000000000334e-01 -4.474388000000000254e+00 4.899859999999999771e-01 6.396713000000000093e+00 -2.417390000000000094e-01 -1.000480000000000036e+00 -1.751482999999999901e+00
8.377320000000000322e-01 -2.239923999999999804e+00 3.825879000000000030e+00 -1.562856000000000023e+00 1.517169999999999908e-01 9.053550000000000209e-01 -3.616249999999999742e-01 -1.876624000000000070e+00 -1.247130999999999990e+00 -1.280191000000000079e+00 1.765122999999999998e+00 -8.593790000000000040e-01 -2.186029999999999918e-01 1.431203000000000003e+00 4.927255999999999858e+00 -1.458688999999999902e+00 -6.709600000000000009e-01 -7.935020000000000406e-01 1.710096999999999978e+00 -1.925189999999999957e-01 1.834006999999999943e+00 3.496850000000000236e-01 -2.946536000000000044e+00 -1.437961000000000045e+00 5.842850000000000543e-01 -1.051200000000000051e-02 1.532820000000000071e+00 -2.626829999999999998e-01 -1.700569999999999915e+00 -2.301769999999999927e-01 1.362576000000000009e+00 3.871069999999999789e-01 5.298720000000000097e-01 -1.998590000000000089e-01 -1.506308999999999898e+00 -1.166417999999999955e+00 9.422270000000000367e-01 -3.541980000000000128e-01 7.109429999999999916e-01 7.601040000000000019e-01 -3.844924999999999926e+00 1.404257000000000088e+00 4.837670000000000026e-01 9.685030000000000028e-01 1.525330999999999992e+00 -6.387950000000000017e-01 8.331450000000000244e-01 -2.610419999999999963e+00 2.209135999999999989e+00 8.191110000000000335e-01 9.958179999999999810e-01 8.676129999999999676e-01 1.493190000000000017e+00 2.767169999999999908e-01 1.922180000000000000e-01 -5.776350000000000096e-01 3.918179999999999996e-01 1.520509999999999917e-01 1.468000000000000034e-02 1.280024000000000051e+00 -8.788839999999999986e-01 -7.216599999999999682e-01 1.462952999999999948e+00 -6.464250000000000274e-01 -2.770830000000000237e-01 -9.259209999999999940e-01 1.809283999999999892e+00 1.941270000000000051e+00 -1.302610999999999963e+00 2.178269999999999929e-01 3.767463999999999924e+00 -2.582866999999999802e+00 -1.384152999999999967e+00 -1.236695000000000100e+00 -3.696099999999999941e-01 -5.218739999999999490e-01 -1.535217999999999972e+00 -2.025924999999999976e+00 6.200430000000000108e-01 -3.016039999999999832e-01 9.119709999999999761e-01 1.157869999999999955e+00 -3.160543000000000102e+00 2.027041999999999788e+00 1.641849999999999976e-01 -4.322730000000000183e-01 -2.723148999999999820e+00 -6.264000000000000123e-02 3.205392999999999937e+00 2.461005999999999805e+00 1.140061999999999909e+00 -1.323206000000000104e+00 8.907389999999999475e-01 -6.689629999999999743e-01 -4.361537000000000219e+00 -7.560989999999999656e-01 -1.104044000000000025e+00 -7.671300000000000341e-02 -7.140290000000000248e-01 6.083429999999999671e-01 -5.671469999999999567e-01 -5.821009999999999796e-01 5.853300000000000169e-02 6.542029999999999790e-01 -2.973919999999999897e-01 -4.950345999999999691e+00 1.752539000000000069e+00 9.298149999999999471e-01 2.526362000000000219e+00 2.480319999999999858e+00 -2.008280000000000065e+00 -5.727290000000000436e-01 -1.339390000000000025e-01 1.850950000000000095e+00 -1.675102000000000091e+00 1.642215999999999898e+00 2.961214000000000013e+00 3.685689999999999800e-01 -1.226669999999999983e-01 2.349444999999999784e+00 -4.605024000000000228e+00 -4.804242999999999597e+00 -6.441000000000000059e-01 3.243684000000000012e+00 1.751840000000000064e-01 1.922542999999999891e+00 -1.257454999999999989e+00 5.068249999999999700e-01 1.616961000000000093e+00 -1.065866999999999898e+00 4.473252999999999702e+00 1.452658999999999923e+00 8.038579999999999615e-01 1.170063000000000075e+00 -2.707768000000000175e+00 3.586043000000000092e+00 4.737299999999999844e-02 -1.954995000000000038e+00 7.615640000000000187e-01 -1.414624000000000104e+00 -2.020776999999999823e+00 -2.424890000000000101e-01 -3.228679999999999883e-01 -7.243070000000000341e-01 -1.891798000000000091e+00 -3.254009999999999958e-01 -9.989989999999999704e-01 -1.448768000000000056e+00 2.467600000000000071e-01 -1.146339999999999998e-01 -2.202738999999999780e+00 -1.667566000000000104e+00 1.736285999999999996e+00 -5.971109999999999474e-01 -8.691670000000000229e-01 -2.573900000000000077e-01 3.792365000000000208e+00 6.524940000000000184e-01 -6.301600000000000257e-02 1.403806000000000109e+00 1.501438999999999968e+00 3.708286999999999889e+00 -1.372587000000000002e+00 1.058270000000000044e-01 -1.729070000000000051e-01 -9.261400000000000188e-02 1.765079999999999982e+00 9.695559999999999734e-01 -2.715406999999999904e+00 3.339571999999999985e+00 -3.774090000000000167e+00 1.743254000000000081e+00 -3.218815999999999899e+00 1.835931999999999897e+00 -2.533361999999999892e+00 1.115737999999999897e+00 -1.294327999999999923e+00 1.942655000000000021e+00 1.045900000000000024e-01 8.445589999999999486e-01 -1.939265000000000017e+00 1.187503999999999893e+00 -2.455229000000000106e+00 3.608049999999999868e-01 1.363583999999999907e+00 -1.391186999999999951e+00 -1.487881000000000009e+00 -2.338530000000000053e-01 -1.238199999999999967e+00 -1.688638000000000083e+00 -6.466790000000000038e-01 -1.150964000000000098e+00 -1.833580999999999905e+00 6.306770000000000431e-01 -1.106249000000000038e+00 8.413939999999999753e-01 -1.417847999999999997e+00 -1.287711000000000050e+00 1.003390000000000004e+00 -2.060296000000000127e+00 6.289100000000000246e-02 -7.245700000000000474e-01 1.992089999999999972e-01 1.902399999999999924e-02 -3.326462999999999948e+00 -1.688080000000000136e-01 -1.024029999999999940e-01 -4.126799999999999913e-02 6.814599999999999824e-02 3.238380000000000147e-01 -5.006369999999999987e-01 -3.989010000000000056e-01 1.784399999999999875e-02 6.968509999999999982e-01 -1.741600999999999955e+00 1.285652999999999935e+00 4.409370000000000234e-01 1.186255999999999977e+00 -4.196540000000000270e-01 -7.860319999999999530e-01 -1.862068999999999974e+00 4.315180000000000127e-01 9.906329999999999858e-01 1.388316000000000106e+00 -5.734749999999999570e-01 2.694999999999999913e-03 1.486329000000000011e+00 -3.023137999999999881e+00 2.134992000000000001e+00 -7.189700000000000257e-02 -1.297053000000000011e+00 -4.330643000000000242e+00 8.763149999999999551e-01 9.298419999999999463e-01 1.605086999999999930e+00 -1.754037999999999986e+00 -1.654641999999999946e+00 1.952045999999999948e+00 2.247387999999999941e+00 -2.031111999999999806e+00 -1.491206000000000031e+00 8.673769999999999536e-01 1.937389999999999946e-01 6.759760000000000213e-01 -2.874240000000000128e-01 -2.237349999999999894e-01 3.770614000000000132e+00 3.165334999999999788e+00 5.919189999999999729e-01 3.390714000000000006e+00 1.908693999999999891e+00 1.916447000000000012e+00 4.133020000000000027e-01 -5.090510000000000312e-01 -1.146862000000000048e+00 1.220466999999999969e+00 4.976960000000000273e-01 5.541749999999999732e-01 -1.662752000000000008e+00 -3.717700000000000171e-02 1.953019999999999978e+00 3.416403999999999996e+00 -2.458339000000000052e+00 9.409149999999999459e-01 1.579536000000000051e+00 1.218174000000000090e+00 -3.726032000000000011e+00 -4.987092999999999776e+00 1.208293000000000061e+00 -5.487980000000000080e-01 6.167449999999999877e-01 -8.831500000000000461e-02 1.131714000000000109e+00 1.761323999999999890e+00 -1.480695000000000094e+00 3.121709999999999763e-01
2.184600999999999793e+00 1.649699000000000026e+00 -6.348960000000000159e-01 1.159709000000000101e+00 1.454294999999999893e+00 4.521177999999999919e+00 -1.035015000000000018e+00 -2.727278000000000091e+00 -1.911059000000000063e+00 -5.069424999999999848e+00 4.520680000000000254e-01 -8.636719999999999953e-01 -1.317609999999999948e+00 -4.226460000000000217e-01 -1.299892999999999965e+00 2.231702999999999992e+00 -2.687441000000000191e+00 4.128847999999999629e+00 1.730682000000000054e+00 -1.135258000000000100e+00 -4.315840000000000232e-01 1.032610000000000028e+00 6.511160000000000281e-01 -1.029290000000000066e-01 7.389999999999999868e-03 3.176669999999999772e-01 -1.439664000000000055e+00 -1.690746000000000082e+00 2.384651999999999994e+00 -5.943190000000000417e-01 -8.659040000000000070e-01 -1.146049999999999985e-01 2.030190000000000050e-01 -2.700924999999999798e+00 2.635310000000000152e-01 5.321470000000000367e-01 -2.019814000000000220e+00 -2.827278000000000180e+00 -3.482800000000000118e+00 1.251587000000000005e+00 -2.607839999999999936e+00 5.437419999999999476e-01 3.153489999999999904e-01 1.303342999999999918e+00 3.491674999999999862e+00 -1.058219999999999938e+00 -3.124349000000000043e+00 1.442310999999999899e+00 -1.919378000000000029e+00 1.916509999999999880e-01 -2.867279999999999829e-01 5.339763999999999733e+00 9.343089999999999451e-01 -1.007592999999999961e+00 2.657321000000000044e+00 -2.097668000000000088e+00 -2.987388000000000154e+00 -1.266966000000000037e+00 5.861889999999999601e-01 3.430980000000000141e-01 -1.918039000000000049e+00 4.515265000000000306e+00 1.164960999999999913e+00 -2.884390000000000009e-01 9.970010000000000261e-01 -2.129964999999999886e+00 -7.193070000000000297e-01 1.000189999999999912e+00 1.758559999999999901e+00 2.714307999999999943e+00 -1.927183000000000090e+00 -2.547515000000000196e+00 3.691539999999999822e-01 -1.432706999999999953e+00 -3.524000000000000049e-02 2.334779999999999911e-01 2.051929999999999865e-01 1.639011999999999913e+00 -9.293460000000000054e-01 -1.241862000000000021e+00 -2.400899999999999979e-01 2.811348000000000180e+00 1.225055999999999923e+00 -2.190777999999999892e+00 -2.481373000000000051e+00 -2.727510000000000212e-01 2.748057999999999890e+00 -2.618600000000000094e-02 -4.487470000000000070e-01 2.490886000000000156e+00 2.016633000000000120e+00 -1.867129999999999901e-01 -4.114240000000000119e-01 1.562550000000000050e-01 1.100327999999999973e+00 2.485492999999999952e+00 6.844649999999999901e-01 -1.736313999999999913e+00 1.611228000000000105e+00 -5.880130000000000079e-01 -1.984113000000000016e+00 -3.406515999999999877e+00 -2.257870000000000044e+00 3.144832000000000072e+00 -7.922489999999999810e-01 2.039385999999999921e+00 5.230909999999999727e-01 3.896620000000000084e-01 -1.872616000000000058e+00 8.141739999999999533e-01 -1.455789000000000000e+00 2.881400999999999879e+00 9.350939999999999808e-01 3.629789999999999961e-01 1.400470000000000104e+00 2.534540999999999933e+00 -1.066195999999999922e+00 -2.744219999999999993e-01 -9.267320000000000002e-01 -1.387880000000000003e+00 -6.637779999999999792e-01 -1.306413999999999964e+00 2.394120000000000137e-01 8.283059999999999867e-01 1.525454000000000088e+00 6.326359999999999761e-01 1.031427000000000094e+00 1.702337999999999907e+00 -4.732430000000000248e-01 -1.794955000000000078e+00 -3.740279999999999827e+00 1.453521000000000063e+00 1.068391000000000091e+00 -4.673229999999999884e-01 8.583589999999999831e-01 8.342770000000000463e-01 6.814000000000000057e-01 -1.631496999999999975e+00 -2.562630000000000186e-01 2.032740000000000102e-01 9.895589999999999664e-01 2.588705000000000034e+00 2.145612999999999992e+00 -9.547290000000000498e-01 1.732258999999999993e+00 9.543390000000000484e-01 8.879139999999999810e-01 -1.196801000000000004e+00 -6.146960000000000202e-01 -1.414045999999999914e+00 -1.261120000000000019e-01 -1.246820000000000039e+00 -2.469681000000000015e+00 4.085679999999999867e-01 -1.411213999999999968e+00 -5.268589999999999662e-01 3.820979999999999932e-01 -2.347283000000000008e+00 -1.640179000000000054e+00 -8.908169999999999700e-01 -3.098565999999999931e+00 5.166699999999999626e-01 3.849759000000000153e+00 -2.221811000000000202e+00 -1.084926999999999975e+00 -2.328113999999999795e+00 2.374127999999999794e+00 -1.708132999999999901e+00 3.725640000000000063e-01 1.341315999999999953e+00 -5.703470000000000484e-01 -2.287018999999999913e+00 3.296234999999999804e+00 -3.104757999999999907e+00 -5.009099999999999664e-01 -1.984591999999999912e+00 1.785479000000000038e+00 -3.266760000000000219e-01 5.029460000000000042e-01 -5.130449999999999733e-01 -2.278769999999999962e-01 -1.594052999999999942e+00 1.788493000000000110e+00 -1.312300000000000133e-01 -5.999060000000000503e-01 -1.943024000000000084e+00 3.283551999999999804e+00 3.344863000000000142e+00 1.752972999999999892e+00 1.263805000000000067e+00 1.633779000000000092e+00 7.743120000000000003e-01 -3.768618000000000023e+00 -1.296944000000000097e+00 -9.857510000000000439e-01 2.174960000000000004e+00 2.804126000000000118e+00 -8.049530000000000296e-01 -8.762280000000000069e-01 3.441127999999999965e+00 3.730729999999999880e-01 2.537507999999999875e+00 -3.111870999999999832e+00 2.058400999999999925e+00 6.704350000000000032e-01 -7.455530000000000213e-01 -1.276464999999999961e+00 -1.111502999999999908e+00 1.705094000000000110e+00 8.170929999999999582e-01 -3.008893000000000040e+00 -1.355761999999999912e+00 -1.624532000000000087e+00 -1.593542000000000014e+00 -7.781620000000000203e-01 2.683498999999999857e+00 -7.559599999999999653e-01 -1.137814000000000103e+00 -2.227784999999999904e+00 3.549399999999999777e-02 -2.273189999999999933e-01 -4.829820000000000224e-01 3.857169999999999765e-01 1.980089999999999906e+00 -5.309890000000000443e-01 6.239749999999999464e-01 3.322982999999999798e+00 -7.272459999999999480e-01 -1.360416999999999987e+00 1.125919999999999976e-01 -2.568633999999999862e+00 -8.983700000000000019e-02 -1.368669999999999887e-01 1.346951000000000009e+00 6.014279999999999626e-01 1.224547000000000052e+00 2.058109999999999939e-01 6.740789999999999837e-01 -2.905579999999999830e-01 5.075950000000000184e-01 1.207696000000000103e+00 -1.998216999999999910e+00 2.352974000000000121e+00 -1.123526000000000025e+00 -4.136679999999999802e-01 3.688299999999999912e-01 9.598710000000000298e-01 1.534283000000000063e+00 4.731479000000000212e+00 1.380500000000000060e-01 -4.182549999999999879e-01 1.600592999999999932e+00 7.415399999999999769e-01 -1.524320000000000119e-01 1.851855000000000029e+00 -3.347881999999999802e+00 1.091920000000000002e+00 7.766900000000000193e-02 -7.327649999999999997e-01 -8.174500000000000099e-01 -1.572861000000000065e+00 -2.427060000000000051e-01 1.255867999999999984e+00 9.271089999999999609e-01 -2.102815999999999796e+00 -1.820978999999999903e+00 2.006997999999999838e+00 4.365280000000000271e-01 -2.382990000000000108e-01 -6.419550000000000534e-01 -6.857599999999999807e-02 -1.027298999999999962e+00 -1.481999999999999984e+00 -8.351720000000000255e-01 -8.597129999999999495e-01 2.206730000000000080e-01