-6.821883893597254556e+00 1.215785175038728916e+01 4.510737749609750935e+00 1.215785175038728916e+01 -1.788549748023963559e+01 -1.225970068444794059e+01 4.510737749609750935e+00 -1.225970068444794059e+01 -1.416190045098222683e+01
1.451785761049035450e+01 -2.312529464732036022e+00 -1.900467265921567872e+01 -2.312529464732036022e+00 2.666325364446248258e+01 -4.344235197562947626e+00 -1.900467265921567872e+01 -4.344235197562947626e+00 2.443639352617285354e+01
1.938486271910160141e+01 5.421116801266248508e+00 9.666628278325729795e+00 5.421116801266248508e+00 -1.331639298939325400e+01 7.278924290494548366e-01 9.666628278325729795e+00 7.278924290494548366e-01 -2.030380851333757164e+01
1.462928425725655401e+01 6.573847137910385996e+00 -4.786771112003799900e+00 6.573847137910385996e+00 1.439401252840120193e+01 2.606901035308935466e+00 -4.786771112003799900e+00 2.606901035308935466e+00 3.199774754707581881e+00
-6.484504507691953279e+01 3.554149622757090121e+00 -2.391659850990397185e-01 3.554149622757090121e+00 -5.111684829795141383e+01 7.310786445892980545e+00 -2.391659850990397185e-01 7.310786445892980545e+00 -8.927202333746296858e+01
-1.197351529606280884e+00 -5.136842465455954354e+00 6.200624477449768079e+00 -5.136842465455954354e+00 -8.780436428108107094e+00 7.809307880807081048e+00 6.200624477449768079e+00 7.809307880807081048e+00 -6.524168961600274486e+00
2.194069204958890751e+01 1.538024582541267549e+01 1.440644580432183464e+00 1.538024582541267549e+01 2.037020414924003830e+01 -8.772751211543086569e+00 1.440644580432183464e+00 -8.772751211543086569e+00 -2.263767495507042593e+00
2.119309166393512633e+00 3.172842608948850618e+00 -9.733780599905934139e+00 3.172842608948850618e+00 -1.773469857801381622e+01 1.311202637670939097e+01 -9.733780599905934139e+00 1.311202637670939097e+01 -3.527092247350336152e+01
-2.767375886069658009e+01 -1.949077838191146439e+00 -1.312993231128298888e+01 -1.949077838191146439e+00 -2.280729792489084673e+01 -1.066377202365049293e+01 -1.312993231128298888e+01 -1.066377202365049293e+01 -3.049248157611915389e+01
3.335315831216734495e+01 -5.124002630777423128e+00 -4.829805618863547423e+00 -5.124002630777423128e+00 2.678480940281657041e+01 -2.563248649723574246e+00 -4.829805618863547423e+00 -2.563248649723574246e+00 5.101929829140172501e+01
3.097649311128984007e+00 1.944807783354910891e+00 1.234703342531563131e+01 1.944807783354910891e+00 -1.470071400581236354e+01 -1.337668887257948214e+01 1.234703342531563131e+01 -1.337668887257948214e+01 -1.842851704753294229e+01
-7.321381736068785173e+00 7.926678876762828452e+00 7.022130693389071254e+00 7.926678876762828452e+00 9.997297757799031848e-01 -1.242159346126240349e+00 7.022130693389071254e+00 -1.242159346126240349e+00 -3.373072727777957880e+01
1.664202263857730912e+01 -3.709567924082358470e+00 -2.207096013973448123e+01 -3.709567924082358470e+00 1.863322969880989177e+01 -4.515730102739118124e+00 -2.207096013973448123e+01 -4.515730102739118124e+00 -1.028581298580748360e+01
3.092085881802217529e+01 4.554068277528681818e+00 -5.353556769829692641e+00 4.554068277528681818e+00 4.171589002148375869e+01 -5.894104734978372839e+00 -5.353556769829692641e+00 -5.894104734978372839e+00 6.742691253681154961e+00
-3.529562830018940645e+01 3.116269847317983954e-01 -1.077167820960291778e+01 3.116269847317983954e-01 -2.353632854574483702e+01 -1.335402003161501705e+00 -1.077167820960291778e+01 -1.335402003161501705e+00 -6.997365366991297719e+01
8.155811762523992314e+00 -9.879864273449010525e+00 -6.606545692206575282e+00 -9.879864273449010525e+00 -5.873330945665903968e+00 -1.005152382451869286e+01 -6.606545692206575282e+00 -1.005152382451869286e+01 -2.497018119239872647e+01
9.781428642270860507e+00 -1.266349630219200662e-01 -4.241265105010734171e-01 -1.266349630219200662e-01 1.132067176292261834e+01 1.880652331881896089e+01 -4.241265105010734171e-01 1.880652331881896089e+01 -2.386191656591994459e+01
-2.152796599219700013e+00 7.916655976120617666e+00 5.907789094930643969e+00 7.916655976120617666e+00 -2.911030695599796303e+01 -5.123534371286377898e+00 5.907789094930643969e+00 -5.123534371286377898e+00 -2.051837927088652691e+01
-1.584971030098305000e+01 1.679860256507409844e+01 3.015312148105365964e+00 1.679860256507409844e+01 -2.215529876238561968e+01 4.440800787536534955e+00 3.015312148105365964e+00 4.440800787536534955e+00 -5.472725634474003442e+01
-4.385185081911097882e+01 -2.606933075375888365e+00 1.038500531277020755e+01 -2.606933075375888365e+00 -4.693427500256307638e+01 -3.566206171453742524e+00 1.038500531277020755e+01 -3.566206171453742524e+00 -4.827456280109630882e+01
7.513988584536177484e+01 -1.688245630966859423e+01 4.112614684626374029e+00 -1.688245630966859423e+01 7.370355782215581542e+01 1.751062453912844319e+01 4.112614684626374029e+00 1.751062453912844319e+01 4.048550680354717457e+01
9.214164694631506336e+00 -3.945219543406468521e+00 -1.907032129548787935e+01 -3.945219543406468521e+00 3.323009483806026765e+01 8.052541454367379004e+00 -1.907032129548787935e+01 8.052541454367379004e+00 -6.968186567728694492e+00
2.858408162061556013e+01 2.212348571788066209e+01 2.182668130882475666e+01 2.212348571788066209e+01 5.095161975305378377e+01 1.277623115269632770e+01 2.182668130882475666e+01 1.277623115269632770e+01 4.153766694541631210e+01
4.161753673677400656e+01 1.006033361674154136e+01 -3.169276480723771883e+00 1.006033361674154136e+01 2.881075973912247434e+01 -7.399737975819100644e-01 -3.169276480723771883e+00 -7.399737975819100644e-01 -7.030237846200561691e+00
-1.505449099785081835e+01 -1.151677930241288372e+01 -1.444014310636444520e+01 -1.151677930241288372e+01 -1.286085527372415527e+01 -9.613973908882050168e+00 -1.444014310636444520e+01 -9.613973908882050168e+00 -4.862872799517044342e+01
3.901257317633290711e+01 -3.366145000210873484e+00 -5.428298967708768963e+00 -3.366145000210873484e+00 4.000598166662563671e+01 -1.101469473871386917e+01 -5.428298967708768963e+00 -1.101469473871386917e+01 -3.021929874347570877e-01
1.945223737572423062e+01 2.163783670065875242e+00 -5.735040673407143963e+00 2.163783670065875242e+00 2.368389815765986484e+01 8.090589437983465970e+00 -5.735040673407143963e+00 8.090589437983465970e+00 -5.534926631734701452e+00
2.089154920631088785e+01 1.071578472325457554e+01 -9.659574855806932092e+00 1.071578472325457554e+01 7.822277406932295563e+00 -1.104440459487125636e+01 -9.659574855806932092e+00 -1.104440459487125636e+01 -3.650928387823690002e+00
-1.489331322488698817e+01 2.877396405919627398e+01 1.095235501459083993e+00 2.877396405919627398e+01 -2.269207287592405464e+01 -6.815542840554555504e+00 1.095235501459083993e+00 -6.815542840554555504e+00 -4.927444238925502162e+01
1.734475788066529489e+01 -2.433396398591776144e+00 -1.885752359474850703e-01 -2.433396398591776144e+00 5.325879882657874376e+00 -4.499396341007453337e+00 -1.885752359474850703e-01 -4.499396341007453337e+00 -2.564023128007375973e+01
3.775393026827245535e+01 -2.000570370819540589e+00 -5.455988057341881969e+00 -2.000570370819540589e+00 3.277646470510896393e+01 -2.547818304722149554e-02 -5.455988057341881969e+00 -2.547818304722149554e-02 3.514701585097389369e+01
-1.414302671129219036e+01 1.322609591321256595e+01 -2.127754512122251654e-02 1.322609591321256595e+01 -2.083037547796865852e+01 7.190104272432273902e+00 -2.127754512122251654e-02 7.190104272432273902e+00 -3.068578447103095996e+01
-1.333939132978301423e+01 -1.457998045846452762e+01 5.919485452958824112e+00 -1.457998045846452762e+01 -1.054378143011916258e+01 -1.252155458488220319e+01 5.919485452958824112e+00 -1.252155458488220319e+01 -5.016928010933053628e+01
2.998852654534136164e+01 -3.804011499474633240e+00 4.092607133043264511e+00 -3.804011499474633240e+00 1.887568500148116968e+01 1.851608020494954987e+00 4.092607133043264511e+00 1.851608020494954987e+00 -2.196426353705255519e+00
1.958683596141554872e+01 1.600243200960660062e+01 9.874006183003892545e+00 1.600243200960660062e+01 8.620722930967388287e-01 1.777116666637498454e+01 9.874006183003892545e+00 1.777116666637498454e+01 -3.537418815155599106e+01
1.288651181150528657e+01 4.043062883061509183e+00 -5.092429714798957008e+00 4.043062883061509183e+00 1.160242477338287514e+01 1.000036338482406029e+00 -5.092429714798957008e+00 1.000036338482406029e+00 1.959564477720890041e+00
-1.074987867992316382e+01 -4.515553878156980949e-01 5.602894068932104510e+00 -4.515553878156980949e-01 9.955981916059897241e-01 1.616258696578006582e+00 5.602894068932104510e+00 1.616258696578006582e+00 -1.388347159983126744e+01
1.238587357817589307e+01 1.071161004242416581e+01 2.273021890188107630e+00 1.071161004242416581e+01 -4.772547763139978194e+00 3.318630619041638585e+00 2.273021890188107630e+00 3.318630619041638585e+00 7.383172889391931726e+00
1.448331045086376889e+00 1.311410120723373041e+01 2.541393097542489432e+00 1.311410120723373041e+01 5.754076316461504526e+00 6.637487159818696192e+00 2.541393097542489432e+00 6.637487159818696192e+00 -2.278748228913555884e+00
5.187392737358345052e+00 -1.649522350749774047e+00 8.961683391624738704e+00 -1.649522350749774047e+00 1.929011324527730764e+01 -6.132120441316906145e+00 8.961683391624738704e+00 -6.132120441316906145e+00 -1.458159658763197974e+00
-2.762534228975557782e-01 -1.429534095223260337e+01 -1.815463625716201435e+01 -1.429534095223260337e+01 -3.017744924765340730e+00 1.322830804851431097e+01 -1.815463625716201435e+01 1.322830804851431097e+01 -3.701251223050546457e+01
-5.369898779218497786e+00 9.250933859862287889e+00 -9.415062948281391897e+00 9.250933859862287889e+00 -1.168760127726577025e+01 -1.049461929091307510e+01 -9.415062948281391897e+00 -1.049461929091307510e+01 -6.054951213040502722e+01
1.665347350381007274e+01 -7.372906420809767880e+00 1.379734873134716722e+01 -7.372906420809767880e+00 1.325638158647539200e+01 1.935814474630463133e-01 1.379734873134716722e+01 1.935814474630463133e-01 1.154850470871434176e+01
1.864391644216883037e+01 -3.168688565746550001e+00 1.569131138505364120e+00 -3.168688565746550001e+00 9.864129308002890895e+00 1.367879405536245319e+00 1.569131138505364120e+00 1.367879405536245319e+00 -1.633312024681017505e+01
-4.122493987628663348e+01 -6.938076909805978687e+00 7.096455765377512881e-01 -6.938076909805978687e+00 -5.441040880848350980e+01 5.080844510759906285e+00 7.096455765377512881e-01 5.080844510759906285e+00 -5.912100937217073948e+01
2.165340024350074444e+01 7.490712568478023137e+00 2.594033934526653873e-01 7.490712568478023137e+00 1.195143501178919543e+01 4.191235215082235399e+00 2.594033934526653873e-01 4.191235215082235399e+00 9.265460634013496843e+00
2.376205282444446354e+01 1.740511951364347709e+01 -3.481006441164676612e+00 1.740511951364347709e+01 1.960050375258119360e+01 4.140493335916622719e+00 -3.481006441164676612e+00 4.140493335916622719e+00 7.046315858284371458e+00
3.265980389766821190e+01 -3.942932541592296225e+00 -4.705166899985892215e+00 -3.942932541592296225e+00 3.850423659467190873e+01 -1.232140116196696056e+00 -4.705166899985892215e+00 -1.232140116196696056e+00 -1.537711426145228799e+01
-2.351081859852208211e+01 2.427745046865842138e+00 2.068336796657767351e+01 2.427745046865842138e+00 -2.786235418579758516e+01 5.237818438014999245e+00 2.068336796657767351e+01 5.237818438014999245e+00 -5.893707977363313688e+01
2.800780530919059785e+01 -1.608931653881319201e-01 -8.655062164113502376e+00 -1.608931653881319201e-01 1.679815516071497683e+01 -3.393958526962418620e+00 -8.655062164113502376e+00 -3.393958526962418620e+00 4.759607313101405168e+00
-2.680848955464687222e+01 1.767052769055425188e+01 1.985106524552204377e+00 1.767052769055425188e+01 -2.296564176945121361e+01 -1.492081670528303938e+01 1.985106524552204377e+00 -1.492081670528303938e+01 -5.101288108854917169e+01
2.367757941704019231e+01 -1.147712059611120328e+00 -2.423433928405583693e+00 -1.147712059611120328e+00 4.522956881347187874e+00 -2.958319727284422829e+00 -2.423433928405583693e+00 -2.958319727284422829e+00 -4.471663460036822357e+01
-1.305669501401732724e+01 -1.043521924455024896e+00 1.866125212485983675e-01 -1.043521924455024896e+00 -1.645007607674624950e+01 1.092658619245563756e+01 1.866125212485983675e-01 1.092658619245563756e+01 -4.746344146066670078e+01
1.855469495922690015e+01 -2.372894057059656170e+00 -1.068093146818408101e+01 -2.372894057059656170e+00 2.724318480132117415e+01 -4.237915443450763320e+00 -1.068093146818408101e+01 -4.237915443450763320e+00 -6.037874053520137174e+00
3.037336112801370192e+01 -1.380429748869534734e+00 -7.777636631802975486e+00 -1.380429748869534734e+00 2.619278909142397183e+01 -6.755551594878078880e+00 -7.777636631802975486e+00 -6.755551594878078880e+00 2.944772158416090413e+00
2.261865417336275286e+01 -4.468600249198926733e+00 1.589545768324117425e+00 -4.468600249198926733e+00 1.664559350590095832e+01 -5.723936635401214446e+00 1.589545768324117425e+00 -5.723936635401214446e+00 -3.550922865172972109e+01
1.942053241370916083e+01 -1.204943244451627926e+00 -3.292175513238601026e-01 -1.204943244451627926e+00 8.631495497790444560e-01 -1.409617653832666306e+01 -3.292175513238601026e-01 -1.409617653832666306e+01 -9.241685111343686643e+00
-1.245181493442384379e+01 -5.427119791631294987e+00 -9.390027159434310988e+00 -5.427119791631294987e+00 -6.327959194737328374e+00 2.558950477903253251e+00 -9.390027159434310988e+00 2.558950477903253251e+00 -4.750681375856840560e+01
-2.994761504890442350e+00 -2.838054794046961149e+00 -1.792127389646748981e+01 -2.838054794046961149e+00 1.322732043348933573e+01 -4.959972659922210481e-01 -1.792127389646748981e+01 -4.959972659922210481e-01 -2.989644117720621352e+01
-1.498235259141412001e+01 1.305949947013028911e+01 6.007025145093818352e+00 1.305949947013028911e+01 -3.046871982312414673e+01 2.230278215123593810e+01 6.007025145093818352e+00 2.230278215123593810e+01 -3.033552919653682878e+01
-4.772074661975890031e+00 1.192464142513565761e+01 -8.420843159818517165e+00 1.192464142513565761e+01 -1.078939953640441729e+01 1.200840281356895467e+01 -8.420843159818517165e+00 1.200840281356895467e+01 -1.596881176904666333e+01
7.315001775607167245e-01 6.754717077737648623e+00 1.227510536556094545e+00 6.754717077737648623e+00 -7.131056546604828128e+00 -1.097071023598151740e+01 1.227510536556094545e+00 -1.097071023598151740e+01 -7.728806492308901710e-01
-6.049094231471469740e+00 3.202948521640240021e+00 -6.022941336017188618e+00 3.202948521640240021e+00 2.860315797671142946e+01 -8.432670140514236579e+00 -6.022941336017188618e+00 -8.432670140514236579e+00 -3.631225256513771882e+01
2.267617967343451113e+01 -1.279004861053415532e+01 -5.252421447830233348e+00 -1.279004861053415532e+01 1.662390636444969871e+01 7.197900904881134210e+00 -5.252421447830233348e+00 7.197900904881134210e+00 -1.352377076581042381e+01
-6.022362782768547085e+00 3.690228921123669625e+00 8.839477787047112400e+00 3.690228921123669625e+00 -5.636109351940943313e+00 6.244809327774980545e+00 8.839477787047112400e+00 6.244809327774980545e+00 -1.525873440068395048e+01
-2.152239741189583278e+00 -7.398161994052748547e+00 7.371673175370657027e+00 -7.398161994052748547e+00 -4.707563987870604372e+00 -4.155007373074612431e+00 7.371673175370657027e+00 -4.155007373074612431e+00 -4.831058904988248059e+01
-5.729154120856468246e+00 5.476954880797410219e+00 5.915043949225532671e+00 5.476954880797410219e+00 -1.243452664423102050e+01 -1.118090513995938906e+01 5.915043949225532671e+00 -1.118090513995938906e+01 -2.806944788709258631e+01
1.275049244072093657e+01 8.767660071923273346e-01 1.629828369245324282e+01 8.767660071923273346e-01 -3.830785505562454007e-01 -4.830709543766633196e+00 1.629828369245324282e+01 -4.830709543766633196e+00 -4.055360998346099421e+01
-1.714280280387613331e+01 2.049572054510889174e+01 -2.329477239108169950e+00 2.049572054510889174e+01 -3.728008580985020615e+01 3.648487398518604152e+00 -2.329477239108169950e+00 3.648487398518604152e+00 -2.422653595911674884e+01
2.209927719852479910e+01 1.128665555589882707e+01 -1.185575641386115997e+01 1.128665555589882707e+01 1.305366603547679416e+00 1.507393203848328511e+01 -1.185575641386115997e+01 1.507393203848328511e+01 -2.693087427377427190e+01
-2.343280532469102617e+00 -2.491959033952006131e+00 -7.148755772167352696e+00 -2.491959033952006131e+00 -4.580085072396080648e-01 2.403969987500405381e+01 -7.148755772167352696e+00 2.403969987500405381e+01 -1.175431120734454815e+01
1.252661648986066822e+01 1.099340339102333175e+01 -3.112488145616701285e+00 1.099340339102333175e+01 2.405274983490299689e+01 -1.489059978833718922e+01 -3.112488145616701285e+00 -1.489059978833718922e+01 -1.134627274963398413e+01
-7.884825615796589027e+00 -7.382017683344166414e+00 -2.771325110912609357e+00 -7.382017683344166414e+00 -2.112238838593812318e+01 4.485034700436634658e+00 -2.771325110912609357e+00 4.485034700436634658e+00 -4.707536326844589070e+01
-1.895224433057644475e+01 2.475362116238854604e+00 3.879933654254424713e+00 2.475362116238854604e+00 -1.724860147149017564e+01 -9.845280666778519318e+00 3.879933654254424713e+00 -9.845280666778519318e+00 -2.742672519175366119e+01
5.729715826203793938e-01 7.219260893721640926e+00 -6.858243965912004525e-02 7.219260893721640926e+00 -3.497632578450384333e+00 -3.507669208264315497e+00 -6.858243965912004525e-02 -3.507669208264315497e+00 -2.234577677153121655e+01
5.625156433842958270e-01 1.253947616329726245e+01 -1.437210174604547674e+01 1.253947616329726245e+01 -7.334302610852104110e+00 -2.975077293012213797e+00 -1.437210174604547674e+01 -2.975077293012213797e+00 -6.053467272276057187e+00
-6.700210840223969733e+00 1.482997465905435597e+01 -1.621070382134206289e+00 1.482997465905435597e+01 -2.133900694976219725e+01 -3.370638531286775486e+00 -1.621070382134206289e+00 -3.370638531286775486e+00 -4.968570952152281706e+01
2.292356039332724293e+01 -5.447776925825051464e+00 -6.333745729214433240e+00 -5.447776925825051464e+00 2.030515212893496368e+01 -3.275786034392923707e+00 -6.333745729214433240e+00 -3.275786034392923707e+00 -1.921806296272528414e+01
-1.789628076480630270e+01 1.484335754798043894e+01 6.132499769383714217e+00 1.484335754798043894e+01 -3.798485438797098368e+01 -2.768088721146290343e+00 6.132499769383714217e+00 -2.768088721146290343e+00 -3.176083447662006165e+01
3.907960091565270488e+01 7.060098697174922222e+00 -2.269725414664427632e+01 7.060098697174922222e+00 5.119114566143370126e+01 3.502041428707435511e+00 -2.269725414664427632e+01 3.502041428707435511e+00 -8.449775610728289976e+00
-2.568879721090709367e+01 4.086345439594148421e-01 1.272602532681609588e+01 4.086345439594148421e-01 -3.736060249860975802e+01 -1.770379834826579568e+00 1.272602532681609588e+01 -1.770379834826579568e+00 -5.191247871010232728e+01
3.419399265886179506e+01 4.876679701814224721e+00 1.278169144582754946e+01 4.876679701814224721e+00 3.735804115822668336e+01 1.221309832911542381e+00 1.278169144582754946e+01 1.221309832911542381e+00 8.222603049910361506e+00
-3.146547663026965314e+00 -4.285892856639683224e+00 -2.182789400448016615e+00 -4.285892856639683224e+00 -4.558396806526999079e+00 -1.243084142120269159e-01 -2.182789400448016615e+00 -1.243084142120269159e-01 -1.568237906542958449e+01
-6.654326167809189840e+00 -2.199415214092739745e+01 -9.019836801624755651e+00 -2.199415214092739745e+01 -5.613189159636180037e+00 6.070332381255300724e+00 -9.019836801624755651e+00 6.070332381255300724e+00 -5.598584517854157383e+01
6.593811326770130599e+00 1.192373100834215549e+01 9.750438993948643329e+00 1.192373100834215549e+01 3.370573144185349257e+00 -1.867107295043313542e+01 9.750438993948643329e+00 -1.867107295043313542e+01 -1.513581556664778383e+01
4.362075625063444306e+01 2.839150312795904796e+00 1.751298305430426439e+01 2.839150312795904796e+00 2.883109797192385315e+01 -1.404688241459958675e+01 1.751298305430426439e+01 -1.404688241459958675e+01 -2.524821050115074517e+00
-1.695609632810362299e+01 -2.700189400704178677e+00 3.547767789560270502e-01 -2.700189400704178677e+00 -1.306847393935305135e+01 -1.045155442506903753e+01 3.547767789560270502e-01 -1.045155442506903753e+01 -1.829531042048456513e+01
2.238854986128562174e+01 7.173026672853679564e+00 -6.270296474334789316e+00 7.173026672853679564e+00 8.385842288391492261e+00 -1.071744072441067708e+01 -6.270296474334789316e+00 -1.071744072441067708e+01 2.327517372203431734e+01
-2.904352580235425663e+01 4.456904999871784234e+00 1.197916649868762384e+01 4.456904999871784234e+00 -2.355880868865851596e+01 2.532393392740699767e+01 1.197916649868762384e+01 2.532393392740699767e+01 -2.843402343161499601e+01
1.608064946578807408e+01 1.196853763758323641e+00 3.481696826123785282e+00 1.196853763758323641e+00 1.726716245055510512e+01 5.531468250792536345e+00 3.481696826123785282e+00 5.531468250792536345e+00 1.342280022541172846e+00
-1.649864247636172365e+01 -7.711812277207863886e+00 -1.071912862351513951e+01 -7.711812277207863886e+00 -9.075182926064382372e+00 -1.954202921486045241e+01 -1.071912862351513951e+01 -1.954202921486045241e+01 -1.911244587319030686e+01
1.507690981129851338e+01 8.904731793834850251e+00 6.989046273958301470e-01 8.904731793834850251e+00 -1.641703183550700246e-02 -1.186802737944001152e+01 6.989046273958301470e-01 -1.186802737944001152e+01 -3.467728094117644844e+01
-2.548425861445847929e+01 4.136952892688385397e+00 4.474553677872799895e+00 4.136952892688385397e+00 -4.811590024145400690e+01 -2.127572974334017708e+00 4.474553677872799895e+00 -2.127572974334017708e+00 -3.466105565353544193e+01
-8.523285345778411681e+00 -1.218234777913081324e+01 1.802080255841208967e+01 -1.218234777913081324e+01 5.745897792245679092e+00 -9.846529129746244280e+00 1.802080255841208967e+01 -9.846529129746244280e+00 -1.460125362975327157e+01
-1.256125087026252451e+01 1.385939770850994357e+01 -3.641029501968582771e+00 1.385939770850994357e+01 1.286965980949727806e+00 2.292597809402430631e+00 -3.641029501968582771e+00 2.292597809402430631e+00 -3.068259270653429027e+01
-2.188981094278317485e+01 -6.030693793893168397e+00 -9.223150613793002606e+00 -6.030693793893168397e+00 -1.509061061829763339e+01 7.129038822578080969e-01 -9.223150613793002606e+00 7.129038822578080969e-01 -3.538759560711355334e+01
3.516298717496573190e+00 -4.812252481305538510e+00 7.746712312395459321e+00 -4.812252481305538510e+00 2.284625492970204874e+01 2.324730569101244537e+00 7.746712312395459321e+00 2.324730569101244537e+00 -2.689531688552233391e+01
-2.315692393409876093e+00 2.029724204793944153e+01 1.046542730606041971e+00 2.029724204793944153e+01 -2.037876297628562761e-01 1.576569799441229414e+01 1.046542730606041971e+00 1.576569799441229414e+01 -9.025522957697440063e+00
1.136614089913237713e+01 -6.067194533645785537e-01 3.312907193144681628e+00 -6.067194533645785537e-01 -1.343178089493093585e+00 4.747520516204740026e+00 3.312907193144681628e+00 4.747520516204740026e+00 -3.796038062039318106e+01
-7.140320109395581483e-01 9.886972308657671960e+00 -8.330779342063589610e+00 9.886972308657671960e+00 -1.504066627780733256e+01 6.829014284237770127e+00 -8.330779342063589610e+00 6.829014284237770127e+00 -3.777420126888920748e+01
5.960539337769731993e+00 -9.218273419248926848e-01 5.046494778281354066e+00 -9.218273419248926848e-01 6.073779179557212693e+00 1.119408532331544315e+01 5.046494778281354066e+00 1.119408532331544315e+01 -1.838095961922218180e+01
1.602068458693450381e+01 5.410622420231006036e-01 1.437808613438032701e+01 5.410622420231006036e-01 -4.390700012921097795e+00 -6.819350083135089946e+00 1.437808613438032701e+01 -6.819350083135089946e+00 -4.843251828171887752e+01
-1.213693706571826603e+01 -1.217556411747446354e+01 4.157883640471895959e+00 -1.217556411747446354e+01 -4.680896362819455980e+00 -1.153917643823401029e+01 4.157883640471895959e+00 -1.153917643823401029e+01 -2.153276813032806203e+01
2.350568952764897546e+01 -4.150738428007748837e+00 5.465373257663503487e-02 -4.150738428007748837e+00 2.443435405222338730e+01 -2.496604270366306721e+00 5.465373257663503487e-02 -2.496604270366306721e+00 2.230978287498452772e+01
-4.755194095653415332e+00 8.972306171042939482e+00 1.786143913527603377e+00 8.972306171042939482e+00 -4.757442779852397718e-01 9.422197607878008085e+00 1.786143913527603377e+00 9.422197607878008085e+00 -4.071427555989417613e+01
1.150857437407747952e+01 1.304251964768321947e+01 6.020622553756680873e+00 1.304251964768321947e+01 1.269675537249814035e+01 -3.259929399920053150e+00 6.020622553756680873e+00 -3.259929399920053150e+00 -8.435924569453856492e-01
-5.534229826700524768e+00 5.217832702977117876e+00 2.108767084807660908e+01 5.217832702977117876e+00 -1.582153324071423839e+01 3.615829933329226087e+00 2.108767084807660908e+01 3.615829933329226087e+00 -1.552168448853764993e+01
4.439514159634370571e+01 7.856455564975881600e+00 -2.650218432839167026e-01 7.856455564975881600e+00 4.083943525239187977e+01 3.034265063481489832e+00 -2.650218432839167026e-01 3.034265063481489832e+00 -1.787147157335262548e+01
3.349902533244653569e+01 -4.470790935164855817e+00 3.413639356985751494e+00 -4.470790935164855817e+00 1.013081659390003253e+01 6.504306274352827266e+00 3.413639356985751494e+00 6.504306274352827266e+00 1.213657766262399385e+01
-1.191698277493082436e+01 1.442897551790203892e+01 -3.197044509529348932e+00 1.442897551790203892e+01 -1.203834607930208556e+01 2.688896022860533946e-02 -3.197044509529348932e+00 2.688896022860533946e-02 -3.785792918791667461e+01
1.511715861568531771e+01 1.470141250818421730e+00 -7.592686215146440265e-01 1.470141250818421730e+00 4.703864807881269705e+00 7.622854704041825968e+00 -7.592686215146440265e-01 7.622854704041825968e+00 2.677898882695211569e+01
1.062699867632598938e+00 4.042536077071713585e+00 -1.022241055527568143e+01 4.042536077071713585e+00 -1.801071746681549612e+01 7.692725491210430810e+00 -1.022241055527568143e+01 7.692725491210430810e+00 -1.173657366803323221e+01
-8.248800337565876717e+00 1.320705738159261777e+01 2.884122615105898291e+00 1.320705738159261777e+01 -4.834009268034350271e+00 2.344510677158733358e+01 2.884122615105898291e+00 2.344510677158733358e+01 -2.150823682271292725e+01
-1.743868685378993533e+01 4.305567229773293647e+00 -4.745485763029780202e+00 4.305567229773293647e+00 -1.790127423890111302e+01 9.878534604141622211e+00 -4.745485763029780202e+00 9.878534604141622211e+00 -6.490438485454194506e+01
2.539615546929082868e+01 4.975322747446578653e+00 6.257749640966504545e-01 4.975322747446578653e+00 3.401370452502749941e+01 4.786415664433842920e+00 6.257749640966504545e-01 4.786415664433842920e+00 2.596765609993184398e+01
1.309752034302780288e+01 1.116684224528515834e+01 6.384485022638926033e-01 1.116684224528515834e+01 -1.329247164132327264e+01 5.793160291800390382e+00 6.384485022638926033e-01 5.793160291800390382e+00 -3.266398291330807524e+01
1.996902610671569533e+01 3.828675689257855730e+00 -1.070664128290431094e+01 3.828675689257855730e+00 2.333554744533032022e+01 3.679951797119190626e+00 -1.070664128290431094e+01 3.679951797119190626e+00 -1.236746047713439545e+00
-1.948684121867044894e+01 -6.847153360297442148e-01 -4.875967264434258652e+00 -6.847153360297442148e-01 -7.688636933198642609e+00 -1.161733079494230436e+00 -4.875967264434258652e+00 -1.161733079494230436e+00 5.605592650084473272e-01
-2.630752683833593508e+01 -7.150582283179179655e+00 6.775657448213060263e+00 -7.150582283179179655e+00 -2.556669749276461445e+01 -5.698180064403295830e+00 6.775657448213060263e+00 -5.698180064403295830e+00 -3.951740548591408952e+01
-5.359775539462647487e+01 -2.467528249627907400e+01 2.071286922409495546e+01 -2.467528249627907400e+01 -4.142834970954220353e+01 -1.382832730258426679e+01 2.071286922409495546e+01 -1.382832730258426679e+01 -8.121400652901455430e+01
3.172098977185078539e+01 -1.126507882509416980e+01 8.767499058712222570e-01 -1.126507882509416980e+01 4.072743233152911557e+01 3.986166200782879088e+00 8.767499058712222570e-01 3.986166200782879088e+00 4.324792750405847208e+00
-5.061459023800272128e+00 -7.995493208099861526e+00 -1.460551641523164967e+01 -7.995493208099861526e+00 -2.356498129218113391e+01 -1.238060008017560110e+00 -1.460551641523164967e+01 -1.238060008017560110e+00 -2.510495481722056610e+01
2.878058768102361853e+01 5.037301411981202293e+00 1.165687007135792008e+01 5.037301411981202293e+00 2.541220137012502533e+01 -1.208524016919171995e+00 1.165687007135792008e+01 -1.208524016919171995e+00 2.597445990478558997e+01
4.934443405624790557e+01 -1.141039314246334513e+01 -1.584949951147962821e+01 -1.141039314246334513e+01 2.800542204707998550e+01 -2.188200612414116009e+00 -1.584949951147962821e+01 -2.188200612414116009e+00 -8.014848223635363533e-01
-3.763562047652064990e+01 4.080746121719847075e+00 -1.516825259379408486e+00 4.080746121719847075e+00 -3.246420669107359913e+01 5.294395710111243325e+00 -1.516825259379408486e+00 5.294395710111243325e+00 -4.827494478938022127e+01
5.310843757811478838e+01 1.083284616034539383e+01 6.725039897661215349e+00 1.083284616034539383e+01 3.954610532570134751e+01 2.032723358589588081e+00 6.725039897661215349e+00 2.032723358589588081e+00 1.964908820100920650e+01
-6.224787408083686024e+00 -2.475502072916240248e+00 4.159020373142087834e+00 -2.475502072916240248e+00 -1.116684037548808917e+01 -6.526041842042762386e-01 4.159020373142087834e+00 -6.526041842042762386e-01 -2.324191608719118562e+01
6.831301186980400786e+00 2.152334995970751308e+01 5.854709641739942683e+00 2.152334995970751308e+01 -1.330550629507104610e+01 -6.734036062150267732e+00 5.854709641739942683e+00 -6.734036062150267732e+00 -1.201222005212909139e+01
-2.912571916388394300e+00 -5.236568031716741789e-01 -4.116809215224263574e-01 -5.236568031716741789e-01 -1.663707501358365803e+01 4.347203762914885417e+00 -4.116809215224263574e-01 4.347203762914885417e+00 -4.582811043224113945e+01
2.412032125371964497e+01 -5.420280129632557120e+00 4.900040551613598083e+00 -5.420280129632557120e+00 1.377938700749318102e+01 -2.969110449701646726e+00 4.900040551613598083e+00 -2.969110449701646726e+00 -5.263864811521520970e+00