2.679930000000000145e+00 1.011297000000000068e+01 2.825380000000000003e+00 2.687580000000000080e+00 5.720999999999999697e-02 7.943209999999999660e+00 2.761680000000000135e+00 4.869110000000000049e+00 2.632280000000000175e+00 2.754220000000000113e+00 5.036170000000000258e+00 8.075799999999999201e+00 6.029999999999999770e-03 2.466450000000000031e+00 2.428249999999999797e+00 1.005737000000000059e+01 2.488500000000000156e+00 7.539369999999999905e+00 1.002666999999999931e+01 7.618929999999999758e+00 2.503820000000000157e+00 8.716000000000000136e-02 7.577549999999999564e+00 7.753840000000000288e+00 7.805620000000000225e+00 2.622050000000000214e+00 4.941720000000000113e+00 7.735870000000000246e+00 2.604140000000000121e+00 1.017629999999999946e+01 7.756280000000000285e+00 7.666409999999999947e+00 5.075680000000000192e+00 7.675180000000000113e+00 7.626109999999999722e+00 1.043919999999999959e+01 4.923809999999999576e+00 1.008826999999999963e+01 1.045199999999999996e+01 5.034639999999999560e+00 6.110000000000000153e-02 5.468510000000000204e+00 5.137999999999999901e+00 5.086359999999999992e+00 2.088899999999999924e-01 5.046920000000000073e+00 5.078719999999999679e+00 5.239790000000000170e+00 5.067709999999999937e+00 2.443999999999999950e+00 2.330950000000000077e+00 5.146749999999999936e+00 2.595349999999999824e+00 7.654180000000000206e+00 5.118240000000000123e+00 7.458129999999999704e+00 2.437310000000000088e+00 4.883169999999999789e+00 7.465840000000000032e+00 7.611710000000000420e+00 7.503700000000000259e+00 1.014199999999999963e-01 2.456449999999999800e+00 7.854309999999999903e+00 1.013297000000000025e+01 7.955989999999999895e+00 7.889160000000000394e+00 4.969780000000000086e+00 2.820450000000000124e+00 7.669360000000000177e+00 5.128589999999999982e+00 7.930769999999999875e+00 8.439999999999999586e-03 1.002796999999999983e+01 1.860100000000000087e-01 9.986560000000000770e+00 1.915999999999999995e-02 5.319169999999999732e+00 1.469999999999999953e-02 5.067350000000000243e+00 1.045730000000000004e+01 1.565100000000000102e-01 5.333999999999999631e+00 5.368599999999999817e+00 2.619540000000000202e+00 2.574339999999999851e+00 5.012889999999999624e+00 2.605080000000000062e+00 2.528249999999999886e+00 1.030489999999999995e+01 2.758539999999999992e+00 7.680979999999999919e+00 5.151749999999999829e+00 2.777759999999999785e+00 7.500110000000000277e+00 1.037190000000000012e+01 9.019239999999999924e+00 3.804289999999999949e+00 1.085020000000000095e+00 8.768739999999999313e+00 3.940859999999999808e+00 6.227120000000000211e+00 8.716749999999999332e+00 8.895459999999999923e+00 1.170819999999999972e+00 8.687279999999999447e+00 9.003650000000000375e+00 6.364069999999999894e+00 4.150409999999999933e+00 1.351979999999999960e+00 3.982499999999999929e+00 4.212439999999999962e+00 1.288759999999999906e+00 8.999390000000000001e+00 3.962060000000000137e+00 6.346490000000000187e+00 4.021449999999999747e+00 4.091079999999999828e+00 6.228170000000000428e+00 9.262549999999999173e+00 4.074539999999999829e+00 3.815990000000000215e+00 3.715819999999999901e+00 4.099700000000000344e+00 3.820059999999999789e+00 9.099589999999999179e+00 4.092719999999999914e+00 9.080730000000000857e+00 3.695250000000000146e+00 4.054890000000000327e+00 8.873219999999999885e+00 8.884610000000000340e+00 8.915119999999999933e+00 1.273640000000000105e+00 1.303919999999999968e+00 8.678779999999999717e+00 1.320259999999999989e+00 6.614720000000000155e+00 8.729179999999999495e+00 6.300530000000000186e+00 1.504669999999999952e+00 8.835779999999999745e+00 6.402960000000000207e+00 6.630560000000000009e+00 9.273310000000000386e+00 3.754770000000000163e+00 3.809660000000000046e+00 9.178309999999999746e+00 3.687120000000000175e+00 9.003450000000000841e+00 9.147990000000000066e+00 9.065759999999999152e+00 3.573550000000000004e+00 9.053770000000000095e+00 8.869400000000000617e+00 9.015319999999999112e+00 3.685960000000000125e+00 1.135829999999999895e+00 1.204730000000000079e+00 3.599079999999999835e+00 1.411810000000000009e+00 6.586350000000000371e+00 3.789079999999999782e+00 6.379310000000000258e+00 1.408730000000000038e+00 3.723720000000000141e+00 6.340379999999999683e+00 6.602360000000000007e+00 1.713410000000000100e+00 1.663010000000000099e+00 3.250070000000000014e+00 1.663059999999999983e+00 1.821039999999999992e+00 8.481149999999999523e+00 1.885680000000000023e+00 7.243339999999999890e+00 3.321649999999999991e+00 1.697619999999999907e+00 6.928060000000000329e+00 8.520939999999999515e+00 6.300259999999999749e+00 1.727680000000000105e+00 7.991800000000000015e-01 5.889540000000000219e+00 2.122970000000000024e+00 5.831000000000000405e+00 6.070839999999999570e+00 6.824329999999999785e+00 5.583700000000000330e-01 6.079589999999999606e+00 6.869489999999999874e+00 5.923429999999999751e+00 6.723399999999999821e+00 2.089490000000000069e+00 3.325489999999999835e+00 6.796640000000000015e+00 1.881820000000000048e+00 8.467660000000000409e+00 6.845460000000000100e+00 6.860389999999999766e+00 3.100239999999999885e+00 6.603860000000000063e+00 6.935310000000000308e+00 8.391849999999999810e+00 6.157949999999999591e+00 4.394989999999999952e+00 1.930449999999999999e+00 5.890270000000000117e+00 4.534970000000000390e+00 7.195570000000000022e+00 5.860699999999999577e+00 9.439239999999999853e+00 1.779360000000000053e+00 6.178840000000000110e+00 9.585060000000000358e+00 7.011420000000000208e+00 9.146190000000000708e+00 1.359820000000000029e+00 3.932310000000000194e+00 9.177020000000000621e+00 1.208040000000000003e+00 9.255160000000000053e+00 9.012940000000000396e+00 6.370499999999999829e+00 4.082869999999999777e+00 8.943770000000000664e+00 6.238170000000000215e+00 9.332910000000000039e+00 6.793470000000000120e+00 4.584480000000000111e+00 4.465510000000000090e+00 6.689329999999999998e+00 4.344350000000000378e+00 9.891619999999999635e+00 6.731720000000000148e+00 9.518230000000000857e+00 4.248739999999999739e+00 6.790020000000000167e+00 9.464809999999999945e+00 9.758309999999999818e+00 1.086799999999999988e+00 1.839239999999999986e+00 5.790600000000000191e-01 8.243099999999999872e-01 2.039629999999999832e+00 5.789760000000000240e+00 9.295799999999999619e-01 6.991629999999999789e+00 4.847400000000000042e-01 1.088370000000000060e+00 6.967259999999999565e+00 5.840720000000000134e+00 1.617490000000000094e+00 4.376710000000000100e+00 4.185940000000000438e+00 1.787269999999999914e+00 4.349669999999999703e+00 9.588229999999999364e+00 1.560629999999999962e+00 9.640060000000000073e+00 4.515089999999999826e+00 1.674460000000000059e+00 9.356859999999999289e+00 9.682600000000000762e+00 1.360079999999999956e+00 4.145089999999999719e+00 1.585700000000000109e+00 1.207249999999999934e+00 4.546479999999999855e+00 7.095690000000000275e+00 9.692499999999999449e-01 9.492589999999999861e+00 1.851909999999999945e+00 1.034529999999999950e+00 9.342890000000000583e+00 7.022840000000000416e+00 3.905909999999999993e+00 3.596319999999999961e+00 1.059539999999999926e+00 3.658609999999999918e+00 3.920570000000000110e+00 6.101130000000000386e+00
2.749109999999999943e+00 1.011717999999999940e+01 2.714189999999999880e+00 2.619400000000000173e+00 1.013368000000000002e+01 7.968049999999999855e+00 2.803389999999999826e+00 5.245149999999999757e+00 2.698960000000000026e+00 2.603650000000000020e+00 5.325219999999999843e+00 8.149390000000000356e+00 8.168000000000000260e-02 2.478660000000000085e+00 2.247339999999999893e+00 1.083500000000000019e-01 2.615270000000000206e+00 7.778739999999999988e+00 1.079200000000000020e-01 8.009470000000000312e+00 2.616760000000000197e+00 6.115999999999999909e-02 7.870510000000000339e+00 7.569829999999999615e+00 7.952379999999999782e+00 2.545970000000000066e+00 5.017409999999999926e+00 7.562739999999999796e+00 2.599670000000000147e+00 1.038396999999999970e+01 7.821019999999999861e+00 7.846309999999999896e+00 5.122110000000000163e+00 7.742130000000000400e+00 7.632990000000000386e+00 1.023396999999999935e+01 5.008070000000000022e+00 1.013217999999999996e+01 1.063217000000000034e+01 5.148030000000000328e+00 1.014338000000000051e+01 5.477009999999999934e+00 5.221009999999999707e+00 5.297729999999999606e+00 2.796899999999999942e-01 4.968180000000000263e+00 4.954670000000000130e+00 5.544469999999999565e+00 5.165540000000000020e+00 2.576540000000000052e+00 2.427150000000000141e+00 5.021580000000000155e+00 2.337470000000000159e+00 7.696449999999999569e+00 5.340139999999999887e+00 7.923329999999999984e+00 2.442509999999999959e+00 5.017050000000000232e+00 7.805939999999999657e+00 7.710600000000000342e+00 7.941580000000000084e+00 2.068000000000000047e-02 2.721530000000000005e+00 7.690080000000000027e+00 1.224399999999999933e-01 8.188309999999999533e+00 7.788179999999999659e+00 5.093149999999999622e+00 2.738519999999999843e+00 7.826939999999999564e+00 5.029880000000000351e+00 8.055720000000000880e+00 1.016530000000000022e+01 1.017727999999999966e+01 9.088000000000000245e-02 1.249500000000000055e-01 1.431800000000000017e-01 5.338779999999999859e+00 1.013090000000000046e+01 5.143019999999999925e+00 4.061000000000000026e-02 1.045299999999999979e-01 5.008810000000000429e+00 5.392039999999999722e+00 2.746690000000000076e+00 2.401269999999999794e+00 4.775470000000000326e+00 2.744489999999999874e+00 2.594479999999999897e+00 1.050337000000000032e+01 2.876160000000000050e+00 7.597380000000000244e+00 5.169229999999999769e+00 2.706599999999999895e+00 7.647949999999999804e+00 1.059087000000000067e+01 8.958610000000000184e+00 3.752390000000000114e+00 1.126200000000000090e+00 8.853509999999999991e+00 3.812199999999999811e+00 6.534440000000000026e+00 8.864919999999999689e+00 8.807610000000000383e+00 1.276149999999999896e+00 8.682169999999999277e+00 9.078709999999999170e+00 6.503589999999999982e+00 4.324919999999999654e+00 1.172549999999999981e+00 3.783720000000000194e+00 4.203509999999999636e+00 1.029369999999999896e+00 9.183889999999999887e+00 4.054870000000000196e+00 6.192020000000000302e+00 3.983769999999999811e+00 4.137880000000000003e+00 6.483150000000000190e+00 9.430450000000000443e+00 3.913899999999999935e+00 3.679320000000000146e+00 3.689119999999999955e+00 4.070640000000000036e+00 3.557659999999999823e+00 9.029339999999999478e+00 4.241789999999999949e+00 8.975009999999999266e+00 3.903420000000000112e+00 4.003000000000000114e+00 8.770239999999999370e+00 9.080909999999999371e+00 8.645640000000000214e+00 1.098999999999999977e+00 1.310049999999999937e+00 8.765390000000000015e+00 1.232210000000000027e+00 6.601009999999999600e+00 8.840740000000000265e+00 6.463989999999999903e+00 1.261130000000000084e+00 8.845589999999999620e+00 6.528629999999999711e+00 6.694619999999999571e+00 9.150349999999999540e+00 3.797810000000000130e+00 3.676750000000000185e+00 9.213900000000000645e+00 3.689890000000000114e+00 9.226300000000000168e+00 9.175950000000000273e+00 8.939270000000000493e+00 3.956039999999999779e+00 9.328939999999999344e+00 8.665210000000000079e+00 9.159720000000000084e+00 3.823220000000000063e+00 1.262259999999999938e+00 1.272929999999999895e+00 3.432370000000000143e+00 9.052200000000000246e-01 6.497819999999999929e+00 3.844050000000000189e+00 6.703710000000000058e+00 1.492220000000000102e+00 3.774640000000000217e+00 6.409239999999999604e+00 6.815019999999999634e+00 1.675939999999999985e+00 1.707009999999999916e+00 3.254440000000000222e+00 1.871119999999999894e+00 1.583190000000000097e+00 8.697279999999999234e+00 1.797809999999999908e+00 7.189269999999999605e+00 3.386519999999999975e+00 1.710190000000000099e+00 6.915659999999999918e+00 8.727309999999999235e+00 5.907530000000000392e+00 1.802890000000000104e+00 5.803599999999999870e-01 5.956710000000000171e+00 1.703240000000000087e+00 6.031819999999999737e+00 6.320299999999999585e+00 6.849789999999999601e+00 7.040399999999999991e-01 5.741170000000000329e+00 7.175370000000000026e+00 5.843359999999999665e+00 6.898060000000000080e+00 1.954790000000000028e+00 3.396590000000000220e+00 6.836479999999999890e+00 1.994739999999999958e+00 8.662190000000000722e+00 6.900249999999999773e+00 7.128169999999999895e+00 3.380370000000000097e+00 6.825700000000000323e+00 7.234869999999999912e+00 8.484189999999999898e+00 6.027580000000000382e+00 4.427340000000000053e+00 1.989090000000000025e+00 6.136330000000000062e+00 4.525920000000000165e+00 7.328999999999999737e+00 6.214809999999999945e+00 9.554610000000000269e+00 1.800570000000000004e+00 6.034399999999999764e+00 9.645509999999999806e+00 7.218259999999999899e+00 9.255280000000000840e+00 1.252960000000000074e+00 3.916589999999999794e+00 9.311080000000000467e+00 1.159620000000000095e+00 9.201670000000000016e+00 8.940590000000000259e+00 6.129929999999999879e+00 4.220130000000000159e+00 8.950969999999999871e+00 6.128190000000000026e+00 9.369849999999999568e+00 6.598130000000000273e+00 4.239340000000000330e+00 4.723589999999999733e+00 6.897789999999999644e+00 4.445750000000000313e+00 9.882910000000000750e+00 6.906839999999999868e+00 9.641709999999999781e+00 4.539699999999999847e+00 6.766210000000000058e+00 9.727119999999999322e+00 9.847419999999999618e+00 1.046030000000000015e+00 1.560799999999999965e+00 6.015800000000000036e-01 1.002790000000000070e+00 2.021860000000000213e+00 5.828610000000000291e+00 1.190229999999999899e+00 6.883519999999999861e+00 9.215999999999999748e-01 1.093259999999999899e+00 6.946019999999999861e+00 5.967819999999999681e+00 1.568200000000000038e+00 4.471930000000000405e+00 4.190549999999999997e+00 1.707300000000000040e+00 4.378619999999999735e+00 9.752449999999999619e+00 1.673999999999999932e+00 9.492390000000000327e+00 4.505399999999999849e+00 1.721079999999999943e+00 9.294340000000000046e+00 9.981490000000000862e+00 1.386230000000000073e+00 3.995389999999999997e+00 1.757970000000000033e+00 9.634099999999999886e-01 4.545069999999999943e+00 7.184280000000000221e+00 1.066140000000000088e+00 9.652720000000000411e+00 2.010569999999999968e+00 7.733100000000000529e-01 9.761219999999999786e+00 7.174450000000000216e+00 3.862109999999999932e+00 3.819539999999999935e+00 1.035530000000000062e+00 3.662160000000000082e+00 3.621410000000000018e+00 6.277359999999999829e+00
2.821750000000000203e+00 5.130000000000000011e-03 2.857619999999999827e+00 2.690459999999999852e+00 5.718000000000000166e-02 7.905090000000000394e+00 2.648099999999999898e+00 5.120700000000000252e+00 2.802039999999999864e+00 2.641449999999999854e+00 5.109630000000000116e+00 7.905990000000000073e+00 1.012476999999999983e+01 2.545269999999999921e+00 2.235079999999999956e+00 1.007867000000000068e+01 2.479750000000000121e+00 7.627880000000000216e+00 2.290999999999999981e-02 7.532230000000000203e+00 2.393499999999999961e+00 1.004517000000000060e+01 7.735529999999999795e+00 7.660940000000000083e+00 7.895870000000000388e+00 2.434450000000000003e+00 5.050340000000000273e+00 7.834450000000000358e+00 2.509659999999999780e+00 1.018280999999999992e+01 7.823459999999999859e+00 7.398410000000000153e+00 5.018580000000000041e+00 7.683430000000000426e+00 7.887459999999999916e+00 1.046270999999999951e+01 5.100900000000000212e+00 9.708999999999999575e-02 3.034999999999999851e-02 5.274440000000000239e+00 2.012400000000000022e-01 5.475389999999999979e+00 5.012669999999999959e+00 5.217389999999999972e+00 2.506999999999999854e-02 5.164329999999999643e+00 4.897599999999999731e+00 5.448450000000000237e+00 5.065199999999999925e+00 2.691879999999999828e+00 2.365619999999999834e+00 5.070210000000000328e+00 2.580060000000000020e+00 7.764999999999999680e+00 5.173219999999999708e+00 7.617580000000000240e+00 2.513830000000000009e+00 4.899829999999999686e+00 7.739020000000000010e+00 7.738660000000000316e+00 7.711570000000000036e+00 1.045200000000000018e-01 2.747119999999999784e+00 7.922719999999999985e+00 1.004785000000000039e+01 7.923079999999999679e+00 7.838960000000000150e+00 5.003650000000000375e+00 2.808190000000000186e+00 7.691430000000000433e+00 5.273189999999999600e+00 8.159530000000000172e+00 1.006606999999999985e+01 1.011364999999999981e+01 1.176900000000000029e-01 1.001436999999999955e+01 1.000084000000000017e+01 5.293079999999999785e+00 5.124999999999999695e-02 5.174330000000000318e+00 1.045941000000000010e+01 1.706900000000000084e-01 5.165700000000000180e+00 5.450499999999999901e+00 2.576189999999999980e+00 2.559379999999999988e+00 5.006560000000000343e+00 2.629000000000000004e+00 2.484970000000000123e+00 1.026951000000000036e+01 2.818499999999999783e+00 7.522319999999999673e+00 4.915949999999999598e+00 2.638419999999999987e+00 7.920749999999999957e+00 1.049300999999999995e+01 8.700860000000000483e+00 3.778169999999999806e+00 1.060470000000000024e+00 9.037269999999999470e+00 3.658500000000000085e+00 6.195409999999999862e+00 9.040720000000000312e+00 8.728429999999999467e+00 1.206210000000000004e+00 8.722699999999999676e+00 8.699600000000000222e+00 6.433729999999999727e+00 4.054780000000000051e+00 1.397119999999999918e+00 4.001059999999999839e+00 4.000910000000000188e+00 1.405999999999999917e+00 9.220929999999999183e+00 3.975820000000000132e+00 6.320969999999999978e+00 3.905990000000000073e+00 3.925019999999999953e+00 6.516770000000000174e+00 9.137190000000000367e+00 4.216280000000000250e+00 3.884879999999999889e+00 3.726189999999999891e+00 4.098499999999999588e+00 3.886810000000000098e+00 8.960889999999999134e+00 4.198019999999999641e+00 8.885089999999999932e+00 4.079139999999999766e+00 4.014479999999999826e+00 8.973399999999999821e+00 9.131790000000000518e+00 8.900249999999999773e+00 1.121310000000000029e+00 1.432770000000000099e+00 8.778570000000000206e+00 1.177969999999999962e+00 6.463639999999999830e+00 8.929719999999999658e+00 6.114860000000000184e+00 1.652800000000000047e+00 8.892770000000000508e+00 6.214559999999999640e+00 6.856410000000000338e+00 9.352230000000000487e+00 3.730939999999999923e+00 3.709830000000000183e+00 9.076129999999999143e+00 3.779760000000000009e+00 8.921760000000000801e+00 9.126670000000000726e+00 8.753249999999999531e+00 3.863469999999999960e+00 9.097979999999999734e+00 8.764879999999999782e+00 9.123129999999999740e+00 3.934829999999999828e+00 1.216599999999999904e+00 1.370610000000000106e+00 3.840380000000000127e+00 1.168690000000000007e+00 6.628730000000000011e+00 3.696699999999999875e+00 6.354709999999999859e+00 1.335919999999999996e+00 3.996500000000000163e+00 6.301120000000000054e+00 6.680519999999999570e+00 1.849599999999999911e+00 2.099270000000000191e+00 3.183879999999999821e+00 1.468050000000000077e+00 1.790980000000000016e+00 8.650550000000000850e+00 1.707170000000000076e+00 7.063030000000000364e+00 3.475589999999999957e+00 1.485840000000000050e+00 6.787589999999999790e+00 8.726900000000000546e+00 6.214719999999999800e+00 1.710630000000000095e+00 6.076599999999999779e-01 6.136820000000000164e+00 2.153540000000000010e+00 6.055860000000000021e+00 6.114359999999999573e+00 6.898710000000000342e+00 6.898900000000000032e-01 6.254480000000000040e+00 6.683919999999999639e+00 5.928460000000000285e+00 6.780829999999999913e+00 1.772319999999999895e+00 3.241169999999999884e+00 6.871150000000000091e+00 1.829749999999999988e+00 8.552640000000000242e+00 6.811700000000000088e+00 6.958770000000000344e+00 3.308720000000000105e+00 6.770439999999999792e+00 7.182269999999999932e+00 8.640129999999999200e+00 6.103790000000000049e+00 4.321920000000000428e+00 1.770340000000000025e+00 6.176420000000000243e+00 4.378999999999999559e+00 7.235500000000000043e+00 6.183489999999999931e+00 9.192869999999999209e+00 1.965000000000000080e+00 6.071740000000000137e+00 9.560159999999999769e+00 7.105150000000000077e+00 9.172980000000000800e+00 1.116870000000000029e+00 4.034410000000000274e+00 9.256309999999999150e+00 1.143410000000000037e+00 9.120850000000000790e+00 9.271229999999999194e+00 6.220390000000000086e+00 4.080930000000000391e+00 8.959030000000000271e+00 6.391630000000000145e+00 9.508269999999999555e+00 6.801919999999999966e+00 4.271950000000000358e+00 4.545399999999999885e+00 6.757579999999999920e+00 4.574519999999999698e+00 9.881660000000000110e+00 6.943679999999999630e+00 9.579209999999999781e+00 4.486690000000000289e+00 7.063449999999999562e+00 9.711209999999999454e+00 9.835990000000000677e+00 1.104090000000000016e+00 1.545029999999999903e+00 5.513599999999999612e-01 1.130719999999999947e+00 1.747549999999999937e+00 5.944020000000000081e+00 1.121010000000000062e+00 6.723370000000000068e+00 9.044400000000000217e-01 1.399529999999999941e+00 6.659880000000000244e+00 6.231700000000000017e+00 1.804999999999999938e+00 4.351140000000000008e+00 4.462019999999999875e+00 1.713810000000000056e+00 4.241979999999999862e+00 9.711050000000000182e+00 1.816889999999999894e+00 9.349259999999999238e+00 4.594240000000000101e+00 1.702369999999999939e+00 9.537409999999999499e+00 9.793530000000000513e+00 9.664399999999999658e-01 4.181809999999999583e+00 1.866719999999999935e+00 1.002389999999999892e+00 4.197580000000000311e+00 7.270629999999999704e+00 1.436369999999999925e+00 9.228450000000000486e+00 1.684690000000000021e+00 8.435399999999999565e-01 9.445380000000000109e+00 7.055139999999999745e+00 3.713080000000000158e+00 3.773960000000000203e+00 1.076140000000000096e+00 3.653700000000000170e+00 3.790630000000000166e+00 6.501949999999999896e+00
2.677200000000000024e+00 1.008473000000000042e+01 2.567530000000000090e+00 2.750989999999999824e+00 2.033200000000000007e-01 7.856189999999999785e+00 2.713690000000000158e+00 5.006149999999999878e+00 2.747009999999999952e+00 2.807650000000000201e+00 4.978110000000000035e+00 8.049110000000000653e+00 9.971869999999999123e+00 2.501409999999999911e+00 2.349740000000000162e+00 3.320000000000000034e-03 2.674630000000000063e+00 7.633610000000000007e+00 1.544200000000000017e-01 7.528730000000000366e+00 2.443369999999999820e+00 1.103399999999999936e-01 7.602470000000000283e+00 7.540840000000000209e+00 7.635340000000000238e+00 2.521869999999999834e+00 4.909889999999999866e+00 7.536030000000000229e+00 2.567989999999999995e+00 1.023264999999999958e+01 7.807050000000000267e+00 7.797069999999999723e+00 5.054669999999999774e+00 7.854239999999999888e+00 7.490929999999999644e+00 1.044604999999999961e+01 4.922959999999999781e+00 9.979430000000000689e+00 1.036415000000000042e+01 5.083120000000000083e+00 1.006822999999999979e+01 5.290000000000000036e+00 5.132069999999999688e+00 5.245320000000000427e+00 1.606299999999999950e-01 5.035099999999999909e+00 5.026279999999999859e+00 5.346479999999999677e+00 5.151430000000000398e+00 2.501389999999999780e+00 2.253979999999999873e+00 4.940229999999999677e+00 2.600319999999999965e+00 7.501339999999999897e+00 5.035470000000000113e+00 7.613109999999999822e+00 2.471000000000000085e+00 5.242359999999999687e+00 7.695909999999999584e+00 7.634009999999999962e+00 7.701209999999999667e+00 1.010213000000000072e+01 2.643940000000000179e+00 7.780269999999999797e+00 1.115600000000000064e-01 7.966339999999999755e+00 7.669640000000000235e+00 5.124559999999999782e+00 2.820710000000000051e+00 7.744930000000000092e+00 5.053169999999999717e+00 7.800799999999999734e+00 3.559999999999999970e-02 2.576000000000000165e-02 2.987000000000000072e-02 1.173099999999999976e-01 1.011547000000000018e+01 5.323190000000000310e+00 9.912449999999999761e+00 4.963910000000000267e+00 1.028599999999999931e-01 2.270199999999999996e-01 5.059319999999999595e+00 5.350670000000000037e+00 2.793400000000000105e+00 2.408589999999999787e+00 4.848340000000000316e+00 2.583650000000000002e+00 2.631730000000000125e+00 1.033394999999999975e+01 2.867500000000000160e+00 7.766919999999999824e+00 5.046059999999999768e+00 2.592360000000000220e+00 7.572700000000000209e+00 1.005865000000000009e+01 8.576290000000000191e+00 3.804769999999999985e+00 1.161620000000000097e+00 8.697869999999999990e+00 3.788040000000000074e+00 6.278150000000000119e+00 8.823990000000000222e+00 8.871620000000000061e+00 1.229200000000000070e+00 8.760519999999999641e+00 8.964930000000000732e+00 6.493590000000000195e+00 4.152549999999999741e+00 1.186180000000000012e+00 3.952719999999999789e+00 4.088549999999999685e+00 1.358880000000000088e+00 9.069729999999999848e+00 4.332910000000000039e+00 6.131300000000000416e+00 3.880209999999999937e+00 3.947579999999999867e+00 6.296059999999999768e+00 9.252330000000000609e+00 4.055950000000000166e+00 3.617780000000000218e+00 3.682549999999999990e+00 4.099179999999999602e+00 3.842989999999999906e+00 8.940929999999999822e+00 4.150839999999999641e+00 8.808680000000000732e+00 3.820349999999999913e+00 4.066819999999999879e+00 8.872199999999999420e+00 8.818379999999999441e+00 8.691679999999999851e+00 1.223349999999999937e+00 1.209459999999999980e+00 8.657590000000000785e+00 1.306910000000000016e+00 6.512349999999999639e+00 8.791290000000000049e+00 6.256630000000000358e+00 1.523290000000000033e+00 8.806620000000000559e+00 6.468140000000000001e+00 6.432579999999999742e+00 9.232639999999999958e+00 3.842459999999999987e+00 3.858470000000000066e+00 8.972759999999999181e+00 3.874680000000000124e+00 8.944679999999999964e+00 9.082330000000000680e+00 9.132220000000000226e+00 3.909149999999999903e+00 9.251559999999999562e+00 8.872310000000000585e+00 8.987640000000000740e+00 3.701070000000000082e+00 1.266489999999999894e+00 1.190280000000000005e+00 3.785759999999999792e+00 1.274720000000000075e+00 6.466599999999999682e+00 3.771209999999999951e+00 6.275240000000000151e+00 1.379680000000000017e+00 3.854540000000000077e+00 6.327149999999999608e+00 6.594260000000000232e+00 1.634190000000000031e+00 1.758250000000000091e+00 3.179479999999999862e+00 1.719629999999999992e+00 1.871790000000000065e+00 8.511549999999999727e+00 1.728429999999999911e+00 6.740470000000000184e+00 3.387230000000000185e+00 1.694639999999999924e+00 6.865890000000000271e+00 8.550309999999999633e+00 6.041850000000000165e+00 1.482350000000000056e+00 6.264899999999999913e-01 6.009330000000000283e+00 1.756189999999999918e+00 5.714520000000000266e+00 6.902239999999999931e+00 1.903270000000000017e+00 2.945699999999999985e+00 6.705729999999999968e+00 1.756729999999999903e+00 8.371710000000000207e+00 6.799959999999999560e+00 7.142070000000000363e+00 3.430429999999999868e+00 6.680760000000000254e+00 6.715790000000000148e+00 8.686840000000000117e+00 6.167629999999999946e+00 4.169819999999999638e+00 1.813930000000000042e+00 5.998459999999999681e+00 4.359329999999999927e+00 6.918420000000000236e+00 5.955449999999999910e+00 9.355750000000000455e+00 1.875269999999999992e+00 6.015119999999999578e+00 9.526469999999999771e+00 7.005919999999999703e+00 9.041760000000000019e+00 1.336330000000000018e+00 3.845520000000000049e+00 8.967119999999999536e+00 1.300130000000000008e+00 9.208259999999999224e+00 9.059400000000000119e+00 6.389079999999999870e+00 3.974800000000000111e+00 9.028529999999999944e+00 6.383149999999999658e+00 9.088449999999999918e+00 6.532980000000000231e+00 4.164839999999999876e+00 4.306610000000000049e+00 6.599179999999999602e+00 4.351119999999999877e+00 9.581030000000000157e+00 6.812560000000000393e+00 9.500669999999999504e+00 4.384909999999999641e+00 6.738360000000000127e+00 9.211100000000000065e+00 9.604760000000000630e+00 1.030399999999999983e+00 1.756229999999999958e+00 6.680099999999999927e-01 1.027400000000000091e+00 1.852079999999999949e+00 5.877410000000000245e+00 9.235900000000000221e-01 6.846510000000000318e+00 6.551799999999999846e-01 1.189300000000000024e+00 6.799339999999999939e+00 5.963809999999999611e+00 1.928670000000000107e+00 4.386619999999999742e+00 4.615140000000000242e+00 1.550890000000000102e+00 4.312680000000000291e+00 9.725239999999999441e+00 1.864640000000000075e+00 9.368949999999999889e+00 4.430629999999999846e+00 1.800450000000000106e+00 9.626269999999999882e+00 9.751070000000000348e+00 9.927099999999999813e-01 4.290470000000000006e+00 1.951740000000000030e+00 9.004600000000000382e-01 4.442969999999999864e+00 7.302660000000000373e+00 1.030750000000000055e+00 9.286690000000000111e+00 1.819520000000000026e+00 1.175049999999999928e+00 9.413500000000000867e+00 6.775409999999999933e+00 3.719219999999999970e+00 3.802840000000000220e+00 1.167519999999999891e+00 3.760009999999999852e+00 3.822589999999999932e+00 6.291479999999999961e+00 3.528059999999999974e+00 8.803829999999999600e+00 1.132439999999999891e+00 3.865730000000000111e+00 8.784319999999999240e+00 6.426650000000000418e+00