5.068249999999999922e+00 2.613989999999999814e+00 2.663670000000000204e+00 5.126159999999999606e+00 2.569370000000000154e+00 7.958809999999999718e+00 4.992099999999999760e+00 7.574189999999999756e+00 2.540900000000000158e+00 5.089000000000000412e+00 7.886809999999999654e+00 7.941189999999999749e+00 1.022805999999999926e+01 2.779689999999999994e+00 2.656270000000000131e+00 1.023855999999999966e+01 2.816230000000000011e+00 7.954130000000000145e+00 7.790000000000000049e-03 7.827840000000000131e+00 2.625770000000000159e+00 2.086000000000000007e-02 7.788590000000000124e+00 7.782250000000000334e+00 2.596200000000000063e+00 1.321400000000000075e-01 2.742700000000000138e+00 2.456869999999999887e+00 9.547999999999999543e-02 7.893939999999999735e+00 2.444910000000000139e+00 5.307999999999999829e+00 2.602460000000000218e+00 2.489020000000000010e+00 5.294999999999999929e+00 7.770290000000000141e+00 7.716300000000000381e+00 1.022976000000000063e+01 2.656369999999999898e+00 7.891460000000000363e+00 1.015325999999999951e+01 7.817580000000000418e+00 7.651970000000000383e+00 5.059090000000000309e+00 2.527620000000000200e+00 7.788439999999999586e+00 5.280870000000000175e+00 7.938860000000000028e+00 2.650409999999999933e+00 2.745429999999999815e+00 5.404119999999999813e+00 2.652849999999999930e+00 2.567820000000000213e+00 1.049879999999999924e+01 2.496919999999999806e+00 7.890579999999999927e+00 5.077580000000000204e+00 2.530339999999999812e+00 7.764100000000000001e+00 1.041009999999999991e+01 7.621690000000000076e+00 2.691100000000000048e+00 5.427039999999999864e+00 7.725830000000000197e+00 2.525819999999999954e+00 3.801000000000000212e-02 7.723320000000000185e+00 7.771230000000000082e+00 5.175029999999999575e+00 7.524639999999999773e+00 7.629819999999999602e+00 7.879999999999999852e-03 5.148119999999999585e+00 1.348300000000000054e-01 5.239930000000000199e+00 5.204119999999999635e+00 3.472000000000000086e-02 1.044689999999999941e+01 5.066830000000000389e+00 5.263700000000000045e+00 5.164320000000000022e+00 5.010130000000000194e+00 5.041750000000000398e+00 1.034890000000000043e+01 7.967000000000000470e-02 2.700099999999999723e-01 5.232359999999999900e+00 1.016305999999999976e+01 1.907500000000000029e-01 5.179999999999999882e-02 1.022335999999999956e+01 5.109169999999999767e+00 5.251290000000000013e+00 1.402700000000000058e-01 5.159970000000000390e+00 2.860000000000000129e-03 3.703619999999999912e+00 3.832190000000000207e+00 3.669560000000000155e+00 3.937619999999999898e+00 4.078610000000000291e+00 8.911899999999999267e+00 3.821200000000000152e+00 8.955849999999999866e+00 3.598349999999999937e+00 3.685900000000000176e+00 9.009880000000000777e+00 8.983449999999999491e+00 8.934039999999999537e+00 3.945230000000000015e+00 3.750570000000000181e+00 8.830189999999999984e+00 3.891140000000000043e+00 8.809300000000000352e+00 8.878199999999999648e+00 8.958970000000000766e+00 3.535499999999999865e+00 3.980459999999999887e+00 1.175859999999999905e+00 1.555239999999999956e+00 3.736349999999999838e+00 1.315069999999999961e+00 6.746879999999999988e+00 3.804250000000000131e+00 6.356729999999999769e+00 1.549590000000000023e+00 4.082690000000000374e+00 6.341310000000000002e+00 7.017100000000000115e+00 9.017689999999999984e+00 1.332810000000000050e+00 1.720620000000000038e+00 8.832599999999999341e+00 1.635259999999999936e+00 6.926689999999999792e+00 9.097500000000000142e+00 6.495049999999999990e+00 1.620900000000000007e+00 9.025169999999999249e+00 6.449390000000000178e+00 6.877740000000000187e+00 3.642040000000000166e+00 1.316149999999999931e+00 4.193299999999999805e+00 3.817250000000000032e+00 1.307080000000000020e+00 9.536540000000000461e+00 3.782999999999999918e+00 6.421730000000000160e+00 4.195219999999999949e+00 3.719199999999999839e+00 6.484829999999999650e+00 9.527590000000000003e+00 8.669589999999999463e+00 1.292939999999999978e+00 4.383359999999999701e+00 8.863879999999999981e+00 1.171689999999999898e+00 9.507899999999999352e+00 9.073840000000000572e+00 6.534259999999999735e+00 4.344759999999999955e+00 9.038909999999999556e+00 6.454250000000000043e+00 9.419859999999999900e+00 3.862550000000000150e+00 3.865790000000000060e+00 1.003460000000000019e+00 3.806620000000000115e+00 3.926909999999999901e+00 6.340180000000000149e+00 3.975190000000000001e+00 8.883720000000000283e+00 9.323000000000000176e-01 3.902489999999999792e+00 8.798579999999999401e+00 6.255969999999999587e+00 9.031019999999999825e+00 3.899109999999999854e+00 9.781199999999999894e-01 9.085689999999999600e+00 3.928249999999999797e+00 6.412989999999999746e+00 9.024269999999999570e+00 9.044069999999999609e+00 7.904299999999999660e-01 9.076890000000000569e+00 9.174459999999999837e+00 6.288829999999999920e+00 1.081199999999999939e+00 1.355699999999999905e+00 3.592420000000000169e+00 1.290629999999999944e+00 1.413850000000000051e+00 8.838739999999999597e+00 1.312629999999999963e+00 6.610459999999999781e+00 3.627130000000000187e+00 1.174309999999999965e+00 6.299150000000000027e+00 8.811450000000000671e+00 6.153059999999999974e+00 8.992200000000000193e-01 3.522879999999999789e+00 6.326920000000000321e+00 1.185799999999999965e+00 8.763099999999999667e+00 6.275260000000000282e+00 6.272459999999999702e+00 3.582110000000000127e+00 6.385889999999999844e+00 6.547290000000000276e+00 8.900290000000000035e+00 9.584899999999999531e-01 4.356969999999999565e+00 1.774599999999999955e+00 1.281230000000000091e+00 3.958689999999999820e+00 6.948839999999999684e+00 1.280070000000000041e+00 9.286770000000000636e+00 1.609879999999999978e+00 1.333050000000000068e+00 9.161429999999999296e+00 6.734440000000000204e+00 6.726950000000000429e+00 3.418989999999999974e+00 1.680199999999999916e+00 6.455210000000000115e+00 3.923820000000000086e+00 6.901209999999999845e+00 6.545090000000000074e+00 8.493370000000000530e+00 1.659010000000000096e+00 6.372740000000000293e+00 9.011879999999999669e+00 7.018419999999999881e+00 1.227700000000000014e+00 3.990689999999999849e+00 4.352330000000000254e+00 1.197959999999999914e+00 3.759999999999999787e+00 9.599650000000000460e+00 1.157820000000000071e+00 9.152929999999999566e+00 4.135740000000000194e+00 1.120740000000000069e+00 9.039339999999999264e+00 9.266999999999999460e+00 6.315839999999999677e+00 3.733070000000000110e+00 3.993240000000000123e+00 6.375569999999999737e+00 3.734649999999999803e+00 9.585850000000000648e+00 6.208099999999999952e+00 8.894069999999999254e+00 4.335099999999999731e+00 6.496190000000000353e+00 8.993259999999999366e+00 9.485530000000000683e+00 1.322179999999999911e+00 1.653559999999999919e+00 1.091730000000000089e+00 1.209619999999999918e+00 1.544010000000000105e+00 6.266000000000000014e+00 1.338389999999999969e+00 6.601160000000000139e+00 9.670600000000000307e-01 1.494830000000000103e+00 6.528620000000000090e+00 6.266239999999999810e+00 6.801389999999999603e+00 8.284000000000000252e-01 9.436299999999999688e-01 6.288319999999999688e+00 1.336969999999999992e+00 6.238769999999999705e+00 6.563259999999999650e+00 6.049769999999999648e+00 9.894800000000000262e-01 6.464419999999999611e+00 6.373809999999999754e+00 6.240350000000000286e+00
5.331109999999999793e+00 2.550460000000000171e+00 2.736520000000000064e+00 5.131280000000000285e+00 2.414250000000000007e+00 8.080989999999999895e+00 4.962509999999999977e+00 7.724000000000000199e+00 2.841470000000000162e+00 5.053689999999999571e+00 7.946410000000000196e+00 8.001810000000000755e+00 1.021238999999999919e+01 2.528300000000000214e+00 2.829579999999999984e+00 7.689999999999999787e-03 2.765660000000000007e+00 8.070159999999999556e+00 2.047499999999999876e-01 7.774090000000000167e+00 2.599159999999999915e+00 1.001901999999999937e+01 8.089980000000000615e+00 8.086130000000000706e+00 2.632989999999999942e+00 2.861899999999999999e-01 2.586629999999999985e+00 2.649360000000000159e+00 1.530700000000000116e-01 8.004410000000000025e+00 2.500319999999999876e+00 5.137800000000000367e+00 2.430829999999999824e+00 2.621399999999999952e+00 5.453129999999999811e+00 7.832480000000000331e+00 7.783050000000000246e+00 1.011659000000000042e+01 2.526060000000000194e+00 7.693279999999999674e+00 4.166999999999999871e-02 7.581570000000000142e+00 7.696519999999999584e+00 5.131310000000000038e+00 2.570460000000000189e+00 7.591319999999999624e+00 5.190380000000000216e+00 7.634439999999999671e+00 2.616659999999999986e+00 2.637859999999999872e+00 5.343460000000000321e+00 2.764409999999999812e+00 2.678399999999999892e+00 1.053575000000000017e+01 2.738440000000000207e+00 7.867340000000000444e+00 5.554850000000000065e+00 2.455709999999999837e+00 7.941230000000000011e+00 7.606000000000000261e-02 7.727439999999999642e+00 2.569080000000000030e+00 5.257780000000000342e+00 7.517000000000000348e+00 2.548529999999999962e+00 4.975000000000000255e-02 7.666780000000000150e+00 7.486930000000000085e+00 5.343519999999999825e+00 7.617770000000000152e+00 7.909659999999999691e+00 3.541500000000000203e-01 5.232140000000000235e+00 3.469999999999999994e-03 5.082819999999999894e+00 5.101060000000000372e+00 1.020138999999999996e+01 1.050755000000000017e+01 5.059179999999999566e+00 5.101499999999999702e+00 4.891930000000000334e+00 5.254340000000000011e+00 5.113069999999999560e+00 1.013455000000000084e+01 7.993999999999999717e-02 1.421600000000000086e-01 5.333370000000000388e+00 6.686000000000000276e-02 2.422999999999999876e-01 1.052715000000000067e+01 1.345999999999999974e-02 5.254920000000000258e+00 5.271139999999999937e+00 1.020489000000000068e+01 5.318299999999999805e+00 1.035994999999999955e+01 3.752279999999999838e+00 4.080779999999999852e+00 3.627559999999999896e+00 3.919000000000000039e+00 3.944249999999999812e+00 8.957610000000000738e+00 3.868180000000000174e+00 9.185729999999999507e+00 3.776089999999999947e+00 3.709620000000000140e+00 9.139390000000000569e+00 9.041809999999999903e+00 8.647030000000000882e+00 3.648849999999999927e+00 3.475499999999999812e+00 9.193020000000000636e+00 4.387979999999999769e+00 8.691589999999999705e+00 8.915800000000000836e+00 8.906209999999999738e+00 3.671489999999999920e+00 3.677029999999999799e+00 1.940499999999999892e+00 1.696390000000000065e+00 3.672750000000000181e+00 1.668120000000000047e+00 6.761289999999999800e+00 3.731050000000000200e+00 6.967019999999999769e+00 1.548669999999999991e+00 4.018349999999999866e+00 6.781799999999999606e+00 6.790949999999999598e+00 8.720929999999999183e+00 1.572519999999999918e+00 1.571660000000000057e+00 8.942700000000000315e+00 1.453049999999999953e+00 6.781340000000000146e+00 8.835050000000000736e+00 6.770880000000000010e+00 1.757349999999999968e+00 8.998400000000000176e+00 6.571089999999999876e+00 6.892750000000000377e+00 3.874029999999999863e+00 1.399140000000000050e+00 4.280100000000000016e+00 3.972910000000000164e+00 1.435869999999999980e+00 9.480869999999999465e+00 3.792129999999999779e+00 6.627069999999999794e+00 4.205759999999999721e+00 3.754179999999999851e+00 6.545239999999999725e+00 9.337089999999999890e+00 9.076320000000000832e+00 1.222439999999999971e+00 4.198920000000000208e+00 8.912190000000000722e+00 1.628009999999999957e+00 9.404609999999999914e+00 8.737600000000000477e+00 6.162259999999999849e+00 4.119419999999999860e+00 8.912530000000000285e+00 6.804000000000000270e+00 9.453760000000000829e+00 3.627940000000000165e+00 4.397359999999999935e+00 7.596800000000000219e-01 3.671219999999999928e+00 4.192389999999999617e+00 6.286509999999999820e+00 3.718510000000000204e+00 9.523089999999999833e+00 9.839200000000000168e-01 4.067249999999999588e+00 9.329800000000000537e+00 6.481449999999999712e+00 8.762600000000000833e+00 4.224149999999999849e+00 7.699200000000000488e-01 9.158220000000000027e+00 3.819139999999999979e+00 6.174509999999999721e+00 9.180320000000000036e+00 9.230499999999999261e+00 1.089639999999999942e+00 8.853210000000000690e+00 9.230930000000000746e+00 6.292309999999999626e+00 1.178930000000000033e+00 1.160809999999999897e+00 3.654669999999999863e+00 1.358659999999999979e+00 1.362950000000000106e+00 8.937760000000000815e+00 1.092149999999999954e+00 6.255499999999999616e+00 3.411529999999999951e+00 1.162109999999999976e+00 6.477970000000000006e+00 8.727830000000000865e+00 6.324760000000000382e+00 9.884199999999999653e-01 3.569700000000000095e+00 6.387540000000000440e+00 1.188129999999999908e+00 8.882170000000000343e+00 6.210930000000000284e+00 6.112239999999999895e+00 3.383500000000000174e+00 6.217500000000000249e+00 6.464360000000000106e+00 8.709749999999999659e+00 1.023439999999999905e+00 3.862289999999999779e+00 1.802210000000000090e+00 1.331040000000000001e+00 4.027449999999999974e+00 7.137730000000000352e+00 1.628929999999999989e+00 8.940519999999999357e+00 1.925019999999999953e+00 1.314340000000000064e+00 9.076579999999999870e+00 7.198710000000000164e+00 6.118759999999999977e+00 3.721659999999999968e+00 1.360030000000000072e+00 6.631920000000000037e+00 3.524490000000000123e+00 6.754660000000000331e+00 6.327379999999999782e+00 8.988149999999999196e+00 1.532159999999999966e+00 6.543459999999999610e+00 8.752110000000000056e+00 6.832340000000000302e+00 1.107769999999999921e+00 3.643609999999999793e+00 4.418319999999999581e+00 1.222709999999999964e+00 3.790599999999999969e+00 9.809979999999999478e+00 1.192669999999999897e+00 8.756959999999999411e+00 4.517529999999999824e+00 1.306680000000000064e+00 9.215170000000000528e+00 9.640650000000000830e+00 6.349809999999999732e+00 3.732709999999999972e+00 4.151080000000000325e+00 6.467080000000000162e+00 3.723209999999999908e+00 9.302300000000000679e+00 6.412880000000000358e+00 8.700160000000000338e+00 4.265279999999999738e+00 6.242849999999999788e+00 8.901500000000000412e+00 9.570669999999999789e+00 1.235200000000000076e+00 1.331180000000000030e+00 1.120619999999999949e+00 1.384970000000000034e+00 1.276769999999999960e+00 6.276950000000000252e+00 1.232069999999999999e+00 6.691510000000000069e+00 8.989800000000000013e-01 1.552419999999999911e+00 6.399589999999999890e+00 6.091450000000000031e+00 6.221180000000000376e+00 1.304480000000000084e+00 1.054850000000000065e+00 6.300519999999999676e+00 1.136600000000000055e+00 6.192650000000000432e+00 6.176650000000000418e+00 6.550790000000000113e+00 8.481699999999999795e-01 6.529550000000000409e+00 6.064169999999999838e+00 6.122630000000000017e+00
5.067499999999999893e+00 2.441260000000000208e+00 2.610489999999999977e+00 5.008689999999999642e+00 2.556329999999999991e+00 7.860019999999999563e+00 4.993400000000000283e+00 7.614379999999999704e+00 2.666009999999999991e+00 5.348889999999999922e+00 7.572919999999999874e+00 7.789699999999999847e+00 1.001669000000000054e+01 2.773919999999999941e+00 2.572049999999999947e+00 7.849000000000000421e-02 2.665970000000000173e+00 7.872880000000000322e+00 1.007019000000000020e+01 7.770170000000000243e+00 2.663460000000000161e+00 1.010777999999999999e+01 7.838599999999999568e+00 8.006970000000000809e+00 2.499179999999999957e+00 1.263600000000000001e-01 2.685599999999999987e+00 2.655279999999999863e+00 1.012828999999999979e+01 7.769050000000000011e+00 2.549279999999999990e+00 5.067440000000000389e+00 2.642510000000000137e+00 2.699160000000000004e+00 5.311429999999999652e+00 7.594800000000000217e+00 7.523799999999999599e+00 8.190000000000000058e-02 2.302519999999999900e+00 7.738039999999999807e+00 1.472499999999999920e-01 7.874920000000000364e+00 7.424360000000000070e+00 5.019580000000000375e+00 2.551299999999999901e+00 7.754509999999999792e+00 5.268209999999999837e+00 7.626500000000000057e+00 2.426289999999999836e+00 2.586279999999999912e+00 5.182369999999999699e+00 2.404040000000000177e+00 2.499699999999999811e+00 1.019280000000000008e+01 2.681290000000000173e+00 7.715700000000000003e+00 5.224009999999999820e+00 2.688709999999999933e+00 7.677249999999999908e+00 1.026580000000000048e+01 7.682820000000000427e+00 2.569850000000000190e+00 5.266149999999999665e+00 7.530420000000000336e+00 2.575709999999999944e+00 1.029139999999999944e+01 7.663549999999999862e+00 7.816379999999999661e+00 5.399689999999999657e+00 7.531950000000000145e+00 7.645500000000000185e+00 1.040970000000000084e+01 5.098639999999999617e+00 9.167000000000000148e-02 5.207770000000000010e+00 4.900389999999999802e+00 1.005918999999999919e+01 3.490000000000000047e-03 5.018229999999999968e+00 5.107050000000000090e+00 5.095150000000000290e+00 5.050489999999999924e+00 5.056070000000000064e+00 6.532000000000000306e-02 2.765000000000000097e-02 1.539600000000000135e-01 5.265419999999999767e+00 2.952000000000000110e-02 1.496999999999999997e-01 1.039240000000000030e+01 1.002589000000000041e+01 5.273950000000000138e+00 4.994270000000000209e+00 1.005308999999999919e+01 5.310050000000000381e+00 2.151700000000000002e-01 3.760940000000000172e+00 3.756600000000000161e+00 3.643110000000000070e+00 3.189999999999999947e+00 3.434509999999999952e+00 8.557689999999999131e+00 3.831719999999999793e+00 8.944250000000000256e+00 3.590300000000000047e+00 3.779040000000000177e+00 8.723620000000000374e+00 8.708890000000000242e+00 8.890829999999999345e+00 3.879989999999999828e+00 3.640639999999999876e+00 8.355140000000000455e+00 3.635829999999999895e+00 8.704819999999999780e+00 9.008580000000000254e+00 8.984120000000000772e+00 3.853050000000000086e+00 4.042370000000000019e+00 1.191780000000000062e+00 1.439179999999999904e+00 3.850099999999999856e+00 1.263230000000000075e+00 6.749430000000000263e+00 3.981500000000000039e+00 6.110330000000000261e+00 1.578289999999999971e+00 3.907090000000000174e+00 6.585189999999999877e+00 6.553079999999999572e+00 8.819279999999999120e+00 1.516799999999999926e+00 1.458339999999999970e+00 8.828709999999999170e+00 1.407000000000000028e+00 6.568760000000000154e+00 8.966920000000000002e+00 6.664049999999999585e+00 1.499670000000000059e+00 8.980169999999999320e+00 6.579390000000000072e+00 6.680550000000000210e+00 3.671349999999999891e+00 1.221919999999999895e+00 4.221350000000000158e+00 3.686920000000000197e+00 1.108559999999999990e+00 9.396689999999999543e+00 3.561580000000000190e+00 6.343289999999999651e+00 3.962619999999999809e+00 3.858909999999999840e+00 6.153859999999999886e+00 9.338660000000000849e+00 8.681820000000000093e+00 1.302659999999999929e+00 3.963600000000000012e+00 8.883369999999999322e+00 1.157729999999999926e+00 9.131330000000000169e+00 8.644930000000000447e+00 6.478720000000000034e+00 4.069079999999999586e+00 8.960179999999999367e+00 6.729940000000000033e+00 9.224410000000000664e+00 3.716130000000000155e+00 3.616509999999999891e+00 1.086119999999999974e+00 3.642380000000000173e+00 4.140699999999999825e+00 6.012679999999999580e+00 3.827479999999999993e+00 8.868240000000000123e+00 1.163859999999999895e+00 3.786169999999999813e+00 9.033049999999999358e+00 6.300819999999999865e+00 8.628840000000000288e+00 4.063480000000000203e+00 1.004879999999999995e+00 8.627670000000000172e+00 4.062129999999999797e+00 6.275649999999999729e+00 8.687549999999999883e+00 9.099930000000000518e+00 8.393500000000000405e-01 8.896670000000000300e+00 9.155739999999999768e+00 6.630829999999999558e+00 1.080009999999999915e+00 1.462360000000000104e+00 3.896409999999999929e+00 1.317960000000000020e+00 1.258659999999999890e+00 9.031240000000000379e+00 1.134419999999999984e+00 6.488780000000000214e+00 3.651479999999999837e+00 1.514580000000000037e+00 6.500680000000000014e+00 8.823380000000000223e+00 6.155850000000000044e+00 9.997300000000000075e-01 3.505710000000000104e+00 6.203109999999999680e+00 1.151839999999999975e+00 8.802759999999999252e+00 6.047100000000000364e+00 6.093539999999999957e+00 3.491820000000000146e+00 6.465010000000000367e+00 6.302439999999999820e+00 8.892939999999999401e+00 1.118219999999999992e+00 3.893530000000000157e+00 1.498869999999999925e+00 1.282299999999999995e+00 3.598399999999999821e+00 6.698850000000000193e+00 1.142530000000000046e+00 9.195479999999999876e+00 1.595820000000000016e+00 1.144530000000000047e+00 8.746470000000000411e+00 6.773310000000000386e+00 6.221239999999999881e+00 3.616909999999999847e+00 1.413119999999999932e+00 6.329270000000000174e+00 3.871599999999999930e+00 6.858259999999999579e+00 6.460939999999999905e+00 8.670249999999999346e+00 1.572500000000000009e+00 6.161920000000000286e+00 9.022320000000000562e+00 6.806449999999999889e+00 1.368230000000000057e+00 3.944789999999999797e+00 4.048840000000000217e+00 6.627499999999999503e-01 3.759650000000000158e+00 9.523080000000000211e+00 1.281670000000000087e+00 9.043950000000000600e+00 4.084319999999999951e+00 1.296859999999999902e+00 8.986560000000000770e+00 9.281219999999999359e+00 6.362470000000000070e+00 3.804699999999999971e+00 4.172320000000000029e+00 5.754590000000000316e+00 3.385520000000000085e+00 9.501010000000000844e+00 6.157379999999999853e+00 8.630630000000000024e+00 4.168090000000000295e+00 6.221119999999999983e+00 8.768390000000000128e+00 9.295109999999999317e+00 1.264650000000000052e+00 1.314529999999999976e+00 1.134060000000000068e+00 1.299439999999999928e+00 1.103669999999999929e+00 6.431930000000000369e+00 1.575090000000000101e+00 6.562730000000000175e+00 1.010350000000000081e+00 1.439310000000000089e+00 6.282149999999999679e+00 6.101079999999999615e+00 6.475929999999999964e+00 1.036270000000000024e+00 8.542899999999999938e-01 6.404550000000000409e+00 1.281169999999999920e+00 6.281399999999999650e+00 6.515930000000000000e+00 6.118459999999999788e+00 9.440899999999999848e-01 6.376890000000000391e+00 6.386300000000000310e+00 6.288750000000000284e+00
5.128980000000000317e+00 2.362560000000000215e+00 2.529160000000000075e+00 4.977999999999999758e+00 2.686020000000000074e+00 7.895950000000000024e+00 5.133280000000000065e+00 7.381689999999999863e+00 2.378120000000000012e+00 5.186399999999999899e+00 7.753149999999999764e+00 7.852289999999999992e+00 4.020000000000000136e-03 2.518359999999999932e+00 2.593539999999999957e+00 9.100000000000000450e-03 2.800409999999999844e+00 7.936689999999999579e+00 6.639000000000000457e-02 7.656489999999999796e+00 2.613780000000000214e+00 1.010623000000000005e+01 7.721659999999999968e+00 7.724350000000000271e+00 2.507950000000000124e+00 2.826999999999999999e-02 2.774500000000000188e+00 2.576940000000000008e+00 1.806000000000000105e-01 7.779869999999999841e+00 2.483709999999999862e+00 4.997760000000000424e+00 2.682589999999999808e+00 2.612519999999999953e+00 5.477630000000000443e+00 7.795869999999999855e+00 7.530210000000000292e+00 1.012842999999999982e+01 2.552410000000000068e+00 7.599770000000000358e+00 1.083299999999999957e-01 7.781369999999999898e+00 7.559980000000000366e+00 5.095889999999999809e+00 2.656179999999999986e+00 7.611089999999999911e+00 5.198710000000000164e+00 7.782169999999999810e+00 2.681360000000000188e+00 2.610869999999999802e+00 5.099660000000000082e+00 2.387770000000000170e+00 2.717080000000000162e+00 1.039395999999999987e+01 2.612179999999999946e+00 7.626229999999999620e+00 4.947379999999999889e+00 2.323230000000000128e+00 7.757970000000000255e+00 5.714000000000000329e-02 7.747069999999999901e+00 2.537479999999999958e+00 5.078859999999999708e+00 7.608270000000000088e+00 2.608340000000000103e+00 1.014700000000000046e-01 7.706159999999999677e+00 7.639339999999999797e+00 5.058799999999999741e+00 7.619629999999999903e+00 7.726790000000000269e+00 1.016100000000000059e-01 5.130760000000000431e+00 6.199000000000000343e-02 5.276320000000000121e+00 4.926949999999999719e+00 1.012819999999999965e+01 1.041015999999999941e+01 5.219719999999999693e+00 5.156170000000000364e+00 5.425889999999999880e+00 4.932120000000000282e+00 5.147540000000000227e+00 1.035845999999999911e+01 4.762999999999999873e-02 1.980099999999999916e-01 5.327650000000000219e+00 1.008832999999999913e+01 1.190699999999999953e-01 1.042511000000000010e+01 1.011802999999999919e+01 5.120669999999999611e+00 5.261660000000000004e+00 1.000993000000000066e+01 5.307959999999999567e+00 1.037856000000000023e+01 3.934660000000000046e+00 3.695600000000000218e+00 3.541020000000000056e+00 3.620389999999999997e+00 4.012249999999999872e+00 8.742359999999999687e+00 3.716380000000000017e+00 8.747920000000000584e+00 3.428059999999999885e+00 3.850330000000000030e+00 9.202809999999999491e+00 8.760389999999999233e+00 8.723539999999999850e+00 3.775560000000000027e+00 3.570219999999999949e+00 8.732879999999999754e+00 4.045139999999999958e+00 8.893610000000000682e+00 8.690780000000000172e+00 8.777580000000000382e+00 3.540360000000000174e+00 3.917479999999999851e+00 1.058400000000000007e+00 1.483950000000000102e+00 3.842989999999999906e+00 1.466609999999999969e+00 6.696010000000000240e+00 3.762220000000000120e+00 6.315830000000000055e+00 1.319339999999999957e+00 3.812120000000000175e+00 6.694720000000000226e+00 6.669660000000000366e+00 8.817650000000000432e+00 1.239020000000000010e+00 1.434139999999999970e+00 8.926030000000000797e+00 1.213610000000000078e+00 6.648859999999999992e+00 8.733079999999999288e+00 6.342089999999999783e+00 1.323949999999999960e+00 8.993750000000000355e+00 6.318060000000000009e+00 6.601020000000000110e+00 3.967579999999999885e+00 1.282299999999999995e+00 3.996980000000000199e+00 3.754869999999999930e+00 1.528890000000000082e+00 9.366540000000000532e+00 3.921330000000000204e+00 6.222929999999999851e+00 3.993650000000000144e+00 3.744880000000000209e+00 6.656279999999999752e+00 9.189939999999999998e+00 8.842420000000000613e+00 1.220390000000000086e+00 4.122560000000000002e+00 8.880169999999999675e+00 1.367879999999999985e+00 9.221410000000000551e+00 9.048209999999999198e+00 6.336459999999999759e+00 4.033280000000000420e+00 8.852919999999999234e+00 6.556020000000000181e+00 9.156459999999999155e+00 3.813800000000000079e+00 3.806680000000000064e+00 9.564700000000000424e-01 3.594949999999999868e+00 4.151889999999999858e+00 6.119200000000000195e+00 3.846740000000000048e+00 8.654070000000000817e+00 8.055999999999999828e-01 3.550769999999999982e+00 9.134930000000000661e+00 5.844730000000000203e+00 9.022370000000000445e+00 3.786000000000000032e+00 9.366900000000000226e-01 8.902210000000000178e+00 3.799729999999999830e+00 6.397949999999999804e+00 9.068179999999999907e+00 8.786080000000000112e+00 9.463599999999999790e-01 8.856899999999999551e+00 8.966490000000000293e+00 6.352780000000000094e+00 1.231870000000000021e+00 1.305080000000000018e+00 3.602050000000000196e+00 1.194110000000000005e+00 1.342929999999999957e+00 8.861299999999999955e+00 1.413399999999999990e+00 6.451489999999999725e+00 3.540090000000000181e+00 1.172539999999999916e+00 6.378709999999999880e+00 8.845679999999999765e+00 6.644689999999999763e+00 1.468920000000000003e+00 3.509320000000000217e+00 6.185380000000000322e+00 1.161280000000000090e+00 8.698259999999999437e+00 6.518239999999999590e+00 6.522809999999999775e+00 3.692379999999999995e+00 6.336660000000000181e+00 6.392210000000000392e+00 8.796170000000000044e+00 1.397129999999999983e+00 3.743419999999999970e+00 1.685840000000000005e+00 1.181650000000000089e+00 4.281589999999999563e+00 6.758339999999999570e+00 1.279649999999999954e+00 8.988379999999999370e+00 1.571350000000000025e+00 1.091390000000000082e+00 9.232310000000000016e+00 6.877180000000000071e+00 6.544500000000000206e+00 3.754129999999999967e+00 1.540629999999999944e+00 6.253140000000000143e+00 4.036270000000000024e+00 6.931499999999999773e+00 6.378129999999999633e+00 8.856519999999999726e+00 1.453719999999999901e+00 6.275990000000000180e+00 8.922380000000000422e+00 6.683849999999999625e+00 1.269640000000000102e+00 3.941300000000000026e+00 4.168750000000000178e+00 1.055649999999999977e+00 3.868749999999999911e+00 9.397840000000000416e+00 1.246140000000000025e+00 8.998699999999999477e+00 4.173899999999999721e+00 1.011870000000000047e+00 8.813909999999999911e+00 9.403209999999999624e+00 6.430209999999999759e+00 3.938270000000000159e+00 4.350850000000000328e+00 6.108690000000000175e+00 3.824079999999999924e+00 9.363419999999999632e+00 6.477289999999999992e+00 8.963329999999999131e+00 4.154639999999999667e+00 6.252550000000000274e+00 8.837260000000000559e+00 9.366110000000000824e+00 1.264110000000000067e+00 1.467870000000000008e+00 1.041500000000000092e+00 1.200550000000000006e+00 1.474890000000000034e+00 6.377329999999999721e+00 1.162910000000000110e+00 6.480590000000000295e+00 1.006480000000000041e+00 1.333309999999999995e+00 6.697799999999999976e+00 6.198500000000000121e+00 6.360240000000000116e+00 1.305399999999999894e+00 9.452700000000000546e-01 6.389330000000000176e+00 1.249409999999999910e+00 6.168009999999999771e+00 6.276939999999999742e+00 6.261510000000000353e+00 1.069099999999999939e+00 6.407130000000000436e+00 6.612510000000000332e+00 6.235430000000000028e+00