-1.390519000000000061e+00 -1.122660000000000047e-01 1.017962000000000033e+00 4.943609999999999949e-01 9.254269999999999996e-01 6.363539999999999752e-01 1.330864000000000047e+00 -1.046357999999999899e+00 6.570939999999999559e-01 -5.169660000000000366e-01 -7.191450000000000342e-01 4.024690000000000212e-01 1.093067999999999929e+00 -2.280099999999999905e-01 -8.351380000000000470e-01 3.194190000000000085e-01 -4.278319999999999901e-01 3.068199999999999816e-01 7.932799999999999851e-01 5.097899999999999654e-02 1.555239999999999956e-01 4.659570000000000101e-01 4.110360000000000125e-01 4.914999999999999925e-01 6.766360000000000152e-01 -3.972500000000000336e-02 -8.317309999999999981e-01 -1.087498999999999993e+00 -7.132880000000000331e-01 1.230601000000000056e+00 4.189600000000000268e-02 1.566359999999999975e+00 1.051357000000000097e+00 -6.980089999999999906e-01 -3.281660000000000132e-01 -2.617680000000000007e-01 6.385739999999999750e-01 5.566510000000000069e-01 -2.493170000000000108e+00 -2.425710000000000088e-01 -4.582910000000000039e-01 -2.709260000000000002e-01 7.127099999999999547e-01 -2.507389999999999897e-01 -3.212099999999999678e-02 1.130813999999999986e+00 9.273820000000000396e-01 -1.339123999999999981e+00 -3.257180000000000075e-01 1.642547999999999897e+00 5.319099999999999939e-01 3.613469999999999738e-01 -5.791119999999999601e-01 -1.260517000000000110e+00 -3.389860000000000095e-01 -3.150850000000000040e-01 -2.738840000000000163e-01 1.913566000000000100e+00 9.449530000000000429e-01 -1.274809000000000081e+00 -3.153130000000000099e-01 5.517800000000000482e-01 -1.343097999999999903e+00 6.921220000000000150e-01 -1.113048999999999955e+00 8.570290000000000408e-01 4.879660000000000108e-01 -1.860815000000000108e+00 2.625954999999999817e+00 -1.063852000000000020e+00 7.533180000000000431e-01 7.373599999999999599e-02 2.253320000000000045e-01 1.529240000000000044e-01 2.374110000000000109e-01 5.327089999999999881e-01 1.241217999999999932e+00 -1.341950999999999894e+00 1.750390000000000001e-01 -3.410349999999999770e-01 -4.955700000000000105e-01 -1.204719000000000095e+00 -2.598536000000000179e+00 -8.434460000000000290e-01 -1.398315999999999892e+00 -8.899200000000000443e-01 -5.758699999999999930e-02 9.803699999999999914e-02 -3.591790000000000260e-01 1.460130000000000039e-01 -2.373309999999999864e-01 7.797539999999999472e-01 1.342688000000000104e+00 6.286700000000000621e-02 7.116810000000000080e-01 -1.008491000000000026e+00 -2.804409999999999847e+00 -7.124340000000000117e-01 -1.109358999999999984e+00 1.921348000000000056e+00 -8.093979999999999508e-01 4.300229999999999886e-01 -1.187246000000000024e+00 4.023930000000000007e-01 1.906630999999999965e+00 2.186780000000000113e-01 -1.922590000000000132e-01 9.997699999999999643e-02 4.446339999999999737e-01 -4.847830000000000195e-01 -3.449499999999999789e-02 -4.816559999999999730e-01 5.815000000000000030e-02 6.679300000000000237e-01 3.941799999999999748e-01 -8.094800000000000606e-02 -4.460399999999999782e-02 1.439175000000000093e+00 -7.746549999999999825e-01 1.456250000000000044e+00 9.795099999999999918e-01 -9.121300000000000241e-02 1.208050000000000068e+00 2.249378000000000100e+00 1.519667000000000101e+00 5.090810000000000057e-01 -8.973790000000000378e-01 -1.605855000000000032e+00 -2.093089999999999951e-01 -7.839699999999999447e-02 1.964579999999999937e-01 1.265122999999999998e+00 6.053760000000000252e-01 -8.590339999999999643e-01 -4.590560000000000196e-01 1.414943999999999980e+00 -1.743439999999999990e-01 5.761800000000000255e-02 5.938930000000000042e-01 5.836209999999999454e-01 4.152489999999999792e-01 6.941799999999999360e-02 1.565519999999999967e-01 5.113100000000000422e-01 1.066094000000000097e+00 -1.826170000000000071e+00 -1.447615000000000096e+00 4.771639999999999771e-01 7.646799999999999431e-02 -1.968199999999999950e-01 1.033104999999999940e+00 -2.305659999999999932e-01 -1.296208000000000027e+00 -3.419449999999999990e-01 -1.079315000000000024e+00 9.839999999999999789e-03 -2.820900000000000074e-01 -7.350999999999999895e-03 1.269789999999999974e+00 -2.426460000000000006e-01 2.346099999999999922e-02 -2.194530000000000092e-01 -7.777900000000000091e-02 -6.021000000000000310e-03 -6.435429999999999762e-01 4.669869999999999854e-01 -5.683540000000000258e-01 1.544870000000000132e-01 -7.413220000000000365e-01 9.503200000000000536e-01 2.190200000000000133e-02 8.902799999999999603e-01 -4.006500000000000339e-02 -2.721120000000000205e-01 -1.054731000000000085e+00 -3.961689999999999934e-01 -6.047759999999999803e-01 6.753529999999999811e-01 6.785099999999999465e-01 -2.040999999999999846e-03 -3.034850000000000048e-01 1.526324999999999932e+00 -1.826699000000000073e+00 1.024199999999999972e-01 -7.320360000000000200e-01 5.931499999999999551e-01 8.373180000000000067e-01 -8.247039999999999926e-01 -8.958900000000000197e-02 1.938406000000000073e+00 8.524040000000000505e-01 -6.289740000000000331e-01 -7.819049999999999612e-01 1.538149999999999906e+00 1.458679999999999977e-01 -5.381949999999999790e-01 1.080919999999999936e-01 -1.100497999999999976e+00 -1.328090000000000104e-01 4.689900000000000180e-01 -5.789100000000000357e-01 -2.959160000000000124e-01 6.359120000000000328e-01 1.365300000000000021e-02 -1.761668999999999929e+00 7.610050000000000425e-01 9.695679999999999854e-01 -3.936169999999999947e-01 1.886687000000000003e+00 -1.395726999999999940e+00 1.195877999999999997e+00 -5.999360000000000248e-01 3.555000000000000000e-03 1.872550000000000048e-01 -3.377870000000000039e-01 -3.985980000000000079e-01 1.369070000000000009e-01 -3.408340000000000258e-01 -1.518334000000000072e+00 -2.689900000000000069e-01 1.344071000000000016e+00 1.020475999999999939e+00 -7.074209999999999665e-01 1.001540000000000069e-01 1.579039999999999999e+00 2.931659999999999822e-01 -4.011989999999999723e-01 2.717559999999999976e-01 2.070440000000000058e-01 9.089400000000000257e-02 3.031389999999999918e-01 -1.640824999999999978e+00 -6.258399999999999519e-01 4.195909999999999918e-01 -3.052810000000000246e-01 -7.128090000000000259e-01 8.305230000000000112e-01 -7.557949999999999946e-01 2.235320000000000085e-01 -8.719369999999999621e-01 -1.806840000000000113e-01 5.776599999999999513e-01 -1.618644999999999889e+00 -1.342694999999999972e+00 1.232218000000000035e+00 6.517300000000000315e-01 2.901000000000000245e-01 -4.278199999999999781e-01 3.349929999999999852e-01 -1.330548000000000064e+00 -1.703709999999999947e-01 -2.777120000000000144e-01 8.037980000000000125e-01 -7.125979999999999537e-01 1.176890000000000019e-01 3.305299999999999905e-02 9.062339999999999840e-01 8.274399999999999811e-02 -6.649350000000000538e-01 1.274156000000000066e+00 -8.788989999999999858e-01 -3.541259999999999963e-01 -9.477790000000000381e-01 8.266010000000000302e-01 -1.963219999999999965e+00 -3.135240000000000249e-01 4.134939999999999727e-01 -1.582370000000000054e+00 -6.244760000000000311e-01 -4.672099999999999864e-02 -1.097599999999999909e+00 -4.698060000000000014e-01 9.224869999999999459e-01 2.000629999999999908e-01 1.172911999999999955e+00 4.862239999999999895e-01
-1.397812000000000054e+00 -2.259780999999999818e+00 -1.373342000000000063e+00 -4.320613999999999955e+00 -1.104964000000000057e+00 -6.380090000000000483e-01 2.254480000000000095e-01 -2.147189999999999932e-01 9.682330000000000103e-01 -1.689956000000000014e+00 1.110166999999999904e+00 1.675810000000000077e-01 -1.063152000000000097e+00 1.796453000000000078e+00 -9.966300000000000159e-01 8.731179999999999497e-01 6.554630000000000178e-01 -6.462299999999999989e-02 1.078602000000000061e+00 2.821997000000000089e+00 1.348314000000000012e+00 -5.925300000000000011e-01 -4.924189999999999956e-01 -1.519168000000000074e+00 -2.607800000000000118e-01 5.854530000000000012e-01 6.590380000000000127e-01 5.039299999999999891e-01 1.836710999999999983e+00 1.723279999999999923e+00 1.401408999999999905e+00 -2.443318999999999797e+00 3.682119999999999838e-01 2.104603000000000002e+00 -8.302950000000000053e-01 -1.156576999999999966e+00 3.760950000000000126e-01 -9.201099999999999557e-02 -1.476731999999999934e+00 2.053418999999999883e+00 2.147838999999999832e+00 1.010893000000000042e+00 -5.440989999999999993e-01 -2.153770000000000129e-01 9.868240000000000345e-01 -6.516699999999999715e-01 -2.267300000000000093e+00 2.994379999999999820e-01 -1.124487999999999932e+00 4.242870000000000252e-01 -3.846990000000000132e-01 1.985184000000000060e+00 -2.118155999999999928e+00 -1.563406000000000073e+00 5.315910000000000357e-01 -1.296329000000000065e+00 3.450400000000000134e-01 2.010581000000000174e+00 4.101632999999999640e+00 -2.436400000000000024e-02 7.386030000000000095e-01 4.969649999999999901e-01 2.137450999999999990e+00 2.732117000000000129e+00 3.495670000000000166e-01 1.709173000000000053e+00 -7.462199999999999944e-01 -6.689640000000000031e-01 -1.720199999999999854e-02 1.734250999999999987e+00 7.977539999999999631e-01 1.790800000000000031e-02 1.847123999999999988e+00 1.823762000000000105e+00 -1.560259999999999980e-01 -6.969720000000000359e-01 1.994299999999999962e+00 -2.177820999999999785e+00 -1.164415999999999896e+00 -8.326189999999999980e-01 3.752260000000000040e-01 -2.377777000000000029e+00 -1.329687999999999981e+00 -1.116950000000000109e+00 1.271636999999999906e+00 -8.771179999999999533e-01 -1.614673000000000025e+00 3.525400000000000200e-01 2.105640999999999874e+00 1.487516000000000060e+00 2.626550000000000273e-01 -1.673836000000000102e+00 4.842839999999999923e-01 4.808279999999999776e-01 -2.068230999999999931e+00 -5.814939999999999554e-01 1.676763000000000003e+00 -1.301306999999999992e+00 1.325037000000000020e+00 -3.281660000000000132e-01 8.281739999999999657e-01 7.470470000000000166e-01 2.154618999999999840e+00 -1.153996999999999939e+00 -7.874899999999999956e-02 -1.742002000000000050e+00 8.959970000000000434e-01 4.774680000000000035e-01 -1.787474000000000007e+00 2.096848000000000045e+00 1.260059000000000040e+00 1.831985999999999892e+00 -1.001012999999999931e+00 -1.687609999999999943e-01 -1.961014999999999953e+00 1.133937999999999890e+00 1.114000000000000060e-02 3.776999999999999975e-03 -2.631555000000000089e+00 -1.356192999999999982e+00 -5.749929999999999763e-01 -4.151679999999999815e-01 1.889190000000000036e-01 -2.001789999999999958e-01 -7.944900000000000573e-02 1.134630000000000027e+00 1.591650000000000009e-01 -6.409089999999999510e-01 1.718056999999999945e+00 9.229389999999999539e-01 9.096070000000000544e-01 1.580508000000000024e+00 -9.741539999999999644e-01 2.532999999999999835e-02 1.578349999999999920e+00 -8.214700000000000335e-01 -8.581739999999999924e-01 1.705049999999999899e-01 4.417200000000000015e-01 1.197494000000000058e+00 -7.906509999999999927e-01 1.449813999999999936e+00 1.734733999999999998e+00 8.101519999999999833e-01 9.965079999999999494e-01 5.801279999999999770e-01 -6.090609999999999635e-01 5.357300000000000256e-02 -6.829399999999999915e-01 -1.420000000000000082e-02 -2.535270000000000024e-01 4.100000000000000346e-03 -2.269277000000000211e+00 2.647686000000000206e+00 -1.963642000000000110e+00 -2.293372000000000188e+00 -4.778259999999999730e-01 -1.238267999999999924e+00 -8.280699999999999728e-01 6.350100000000000189e-02 7.839080000000000492e-01 1.065412000000000026e+00 8.596810000000000285e-01 -3.108290000000000219e-01 -2.377873000000000125e+00 2.129377999999999993e+00 1.137385000000000090e+00 2.430156999999999901e+00 6.749700000000000144e-02 1.360961000000000087e+00 -1.468118000000000034e+00 8.090659999999999519e-01 -1.369779999999999887e-01 -1.677500000000000172e-02 -2.345369999999999955e-01 -6.671810000000000240e-01 -9.516820000000000279e-01 1.219263999999999903e+00 4.510290000000000132e-01 1.869659999999999933e-01 7.038090000000000179e-01 -9.049500000000000599e-02 -1.500226000000000059e+00 -7.954379999999999784e-01 8.860930000000000195e-01 -2.201190000000000091e-01 -9.858190000000000008e-01 -1.106691000000000091e+00 5.927430000000000199e-01 -7.201790000000000136e-01 -1.610522000000000009e+00 6.592099999999999349e-02 5.385560000000000347e-01 -5.531400000000000206e-02 3.861919999999999797e-01 1.924349000000000087e+00 -1.093080999999999969e+00 6.815189999999999859e-01 -1.094111000000000056e+00 8.805880000000000374e-01 2.578710000000000169e-01 -1.993298000000000014e+00 1.895140000000000047e+00 1.341177999999999981e+00 1.398903999999999925e+00 -8.341709999999999958e-01 2.134119999999999906e-01 -6.235669999999999824e-01 -1.022345000000000059e+00 -1.085712000000000010e+00 -3.580809999999999826e-01 -8.126090000000000257e-01 -2.318310000000000093e-01 -1.939394999999999980e+00 -1.546710000000000029e+00 -5.985789999999999722e-01 -1.148778000000000077e+00 1.539719999999999978e+00 9.901870000000000394e-01 1.349026000000000058e+00 1.498834999999999917e+00 3.304509999999999947e-01 1.833031999999999995e+00 -1.882907000000000108e+00 6.954139999999999766e-01 -1.560673999999999895e+00 -5.269030000000000102e-01 6.342140000000000555e-01 6.626309999999999700e-01 3.424840000000000106e-01 5.981779999999999875e-01 -4.494060000000000277e-01 2.673499999999999835e-02 -1.068048000000000108e+00 -8.314650000000000096e-01 -1.134295000000000053e+00 2.269740000000000091e-01 -5.640239999999999698e-01 -8.204249999999999599e-01 9.029249999999999776e-01 -1.179250000000000020e-01 -9.866089999999999582e-01 -1.095879000000000048e+00 -8.380119999999999791e-01 1.220507000000000009e+00 -4.992909999999999848e-01 -2.961393999999999860e+00 1.751314999999999955e+00 -1.756598000000000104e+00 -1.476124999999999909e+00 -8.302800000000000458e-02 -9.459819999999999895e-01 1.116470999999999991e+00 -3.301279999999999770e-01 7.113650000000000251e-01 -1.455012999999999890e+00 1.422079000000000093e+00 -3.058900000000000161e-02 -5.885850000000000248e-01 1.779271000000000047e+00 -1.444601000000000024e+00 -1.356490999999999891e+00 -1.121772999999999909e+00 1.020292999999999894e+00 2.121321000000000012e+00 1.914825999999999917e+00 1.706199999999999939e-01 6.048909999999999565e-01 -3.374610000000000110e-01 -2.418099999999999972e-01 -4.540606999999999616e+00 -1.613976999999999995e+00 -2.578570000000000029e-01 8.055299999999999960e-02 -4.692350000000000132e-01 4.693439999999999834e-01
6.126540000000000319e-01 9.110089999999999577e-01 -3.726499999999999813e-01 3.197749999999999759e-01 -3.318610000000000171e-01 2.469139999999999946e-01 -9.086739999999999817e-01 9.604660000000000419e-01 8.286029999999999784e-01 -2.686239999999999739e-01 -3.510449999999999959e-01 3.431150000000000033e-01 -9.000899999999999457e-01 -1.435339999999999949e-01 -6.291769999999999863e-01 -2.988509999999999778e-01 -1.604778999999999956e+00 4.646919999999999940e-01 -8.859799999999999898e-01 -5.724510000000000431e-01 -4.824709999999999832e-01 -4.382249999999999757e-01 -3.545619999999999883e-01 1.820370999999999961e+00 -1.535829000000000111e+00 2.641620000000000079e+00 -2.017410000000000037e-01 5.079999999999999880e-04 2.180378999999999845e+00 -2.446299999999999863e-02 -6.739100000000000645e-02 -1.537806000000000006e+00 -2.824630000000000196e-01 -1.195940999999999921e+00 3.285420000000000007e-01 1.302804000000000073e+00 -3.764870000000000161e-01 -5.139850000000000252e-01 -5.848929999999999962e-01 -5.810920000000000529e-01 -1.578853999999999980e+00 1.981449999999999878e-01 9.684920000000000195e-01 2.834178000000000086e+00 6.991760000000000197e-01 -2.148449999999999971e+00 5.596999999999999892e-02 1.666670000000000096e-01 -1.036801000000000084e+00 1.240050000000000097e+00 -4.685759999999999925e-01 -8.115419999999999856e-01 1.103780000000000039e-01 2.234195999999999849e+00 -3.472040999999999933e+00 -1.990544000000000091e+00 -1.998092999999999897e+00 1.340351999999999988e+00 -8.714030000000000387e-01 5.331550000000000455e-01 -1.176982999999999890e+00 -1.947510000000000074e-01 -1.547199999999999964e-01 -1.598084999999999978e+00 -2.105579999999999952e-01 8.184059999999999668e-01 2.298630000000000118e-01 -6.486100000000000199e-01 -8.763919999999999488e-01 5.297140000000000182e-01 -5.177580000000000515e-01 5.966339999999999977e-01 -1.404612999999999889e+00 1.374138000000000082e+00 9.558579999999999854e-01 -3.896979999999999889e-01 -3.791990000000000083e-01 1.028486999999999929e+00 1.207283000000000106e+00 8.539199999999999569e-02 -1.342424000000000062e+00 -9.422580000000000400e-01 -1.596268999999999938e+00 7.483210000000000139e-01 1.253581000000000056e+00 3.450469999999999926e-01 7.777300000000000324e-01 3.487469999999999737e-01 1.816319999999999879e-01 -3.036710000000000242e-01 8.903680000000000483e-01 -1.154282999999999948e+00 -6.725370000000000514e-01 -8.843929999999999847e-01 1.635779000000000094e+00 -3.810600000000000098e-02 -8.588500000000000023e-01 7.936999999999999611e-01 -4.769090000000000273e-01 9.631779999999999786e-01 -1.596913000000000027e+00 3.914569999999999994e-01 6.655130000000000212e-01 -1.592079999999999940e+00 7.327000000000000179e-01 1.042650999999999994e+00 -1.655299999999999994e+00 6.220639999999999503e-01 3.951770000000000005e-01 -7.501799999999999580e-01 1.211440000000000017e-01 -1.482020000000000004e-01 -2.375950000000000006e-01 9.625029999999999974e-01 3.863130000000000175e-01 1.057830000000000020e-01 2.158799999999999886e-01 2.660569999999999879e-01 4.641000000000000125e-01 -2.381989999999999941e-01 -1.715109999999999968e-01 -8.558670000000000444e-01 -1.266839999999999911e-01 9.191399999999999570e-01 4.797089999999999965e-01 -1.057897000000000087e+00 -1.154317999999999955e+00 -1.515569999999999973e-01 -9.751389999999999780e-01 1.659265999999999908e+00 1.164574999999999916e+00 -2.763218000000000174e+00 1.240934999999999899e+00 1.102589999999999959e-01 5.878560000000000452e-01 -7.277200000000000335e-02 -1.094168000000000029e+00 -2.413470000000000060e-01 -1.016917999999999989e+00 -7.121969999999999690e-01 -7.289400000000000046e-02 1.531270000000000131e-01 1.087869999999999893e+00 -1.149804000000000048e+00 7.403800000000000658e-02 -3.665260000000000185e-01 1.506200000000000039e-01 2.443208999999999964e+00 -1.121328000000000102e+00 8.661000000000000296e-03 -1.126970000000000055e-01 2.998899999999999899e-01 1.626509999999999900e+00 -1.401959999999999873e-01 1.000391000000000030e+00 1.150168000000000079e+00 5.478589999999999849e-01 -8.433100000000000041e-01 1.149600000000000066e-01 -2.430249999999999910e-01 4.187469999999999803e-01 -9.586590000000000389e-01 -1.195632999999999946e+00 7.326840000000000019e-01 1.974839999999999929e-01 1.597949999999999982e+00 3.523879999999999790e-01 8.900360000000000493e-01 -8.374030000000000085e-01 -6.709060000000000024e-01 -5.707700000000000273e-02 3.496200000000000002e-02 6.707739999999999814e-01 -5.227899999999999769e-01 -6.333000000000000088e-03 -3.848050000000000082e-01 -1.290330999999999895e+00 2.950350999999999946e+00 2.279546999999999990e+00 1.715241999999999933e+00 1.316269999999999940e-01 -1.030000000000000100e-03 -1.061074999999999990e+00 -4.486640000000000073e-01 1.602910999999999975e+00 5.358209999999999917e-01 -5.844679999999999875e-01 -1.736650000000000138e-01 7.559949999999999726e-01 3.491819999999999924e-01 5.059930000000000261e-01 -2.765580000000000260e-01 4.280510000000000148e-01 2.723280000000000145e-01 -3.929499999999999660e-02 -6.584219999999999517e-01 4.070699999999999874e-01 8.897429999999999506e-01 1.662609999999999921e-01 1.162798999999999916e+00 5.942509999999999737e-01 -6.172400000000000109e-02 1.453332999999999986e+00 -1.082899999999999974e+00 -1.620119999999999894e-01 -4.835400000000000115e-02 -4.327700000000000297e-02 -9.458659999999999846e-01 -3.197269999999999834e-01 -4.781949999999999812e-01 1.005948999999999982e+00 -8.704250000000000043e-01 7.940660000000000496e-01 3.459000000000000269e-02 -2.732729999999999881e-01 -6.984050000000000535e-01 5.544949999999999601e-01 8.006140000000000478e-01 -1.788839999999999875e-01 -8.265999999999999737e-02 1.728428000000000075e+00 5.504400000000000404e-01 2.697100000000000053e-01 -1.098988999999999994e+00 1.609899999999999873e-02 -6.992540000000000422e-01 -6.674449999999999550e-01 -7.397280000000000522e-01 -6.588580000000000547e-01 -4.552899999999999725e-01 -7.680820000000000425e-01 9.060420000000000140e-01 5.867679999999999563e-01 -6.370299999999999574e-02 1.262580000000000091e-01 2.917600000000000193e-01 -1.033868999999999927e+00 -1.073609999999999981e-01 -2.377470000000000139e-01 -4.500919999999999921e-01 1.061237999999999904e+00 -1.595561000000000007e+00 4.982110000000000150e-01 -9.318140000000000311e-01 4.474190000000000111e-01 -4.534460000000000157e-01 1.302478000000000025e+00 -1.463886000000000021e+00 -6.905540000000000012e-01 1.106813999999999965e+00 -2.304543999999999926e+00 -1.027438000000000073e+00 4.597919999999999785e-01 1.834200000000000066e-02 -4.013439999999999785e-01 -4.424390000000000267e-01 6.631529999999999925e-01 5.539479999999999960e-01 1.182353999999999905e+00 5.920239999999999947e-01 1.242329999999999934e+00 -2.172553999999999874e+00 1.751314000000000037e+00 -6.092340000000000533e-01 4.791699999999999848e-01 5.353900000000000325e-01 2.927770000000000095e-01 -5.432439999999999491e-01 -2.596856999999999971e+00 -1.500739999999999963e+00 2.188530000000000086e+00 1.281509000000000009e+00 6.398059999999999858e-01 9.856439999999999646e-01 -2.543739999999999890e-01 -6.539040000000000408e-01
-1.034370999999999929e+00 -9.577360000000000317e-01 -7.366530000000000022e-01 -6.864379999999999926e-01 -7.226829999999999643e-01 -6.520289999999999697e-01 3.220009999999999817e-01 -1.207433999999999896e+00 2.332639999999999991e-01 2.322661000000000087e+00 2.323570000000000080e-01 5.025500000000000522e-01 8.045250000000000457e-01 -2.946299999999999961e-02 -1.275327000000000099e+00 3.750100000000000100e-01 -1.229376000000000024e+00 -4.852770000000000139e-01 -1.904860999999999915e+00 -2.248578000000000188e+00 9.136940000000000062e-01 4.982170000000000210e-01 2.776005000000000056e+00 3.089500000000000024e-01 3.988280000000000158e-01 -1.086469999999999936e-01 1.347255000000000091e+00 1.612260999999999944e+00 -2.027960000000000040e-01 1.837833999999999968e+00 1.899489999999999901e+00 -9.206260000000000554e-01 -1.690304000000000029e+00 -2.739755000000000162e+00 9.896299999999999542e-02 -9.928700000000000025e-02 -5.527509999999999923e-01 3.249563999999999897e+00 -1.505738000000000021e+00 -6.179489999999999705e-01 2.318590000000000095e-01 6.840000000000000246e-02 2.343529000000000195e+00 2.688030000000000141e-01 -8.187999999999999723e-01 1.951090000000000046e-01 -1.978016999999999914e+00 2.078552000000000177e+00 2.219140000000000001e-01 1.083067000000000002e+00 -2.448585000000000012e+00 3.213159999999999905e-01 6.634830000000000449e-01 3.794680000000000275e-01 4.523750000000000271e-01 1.201618999999999993e+00 -1.466248999999999914e+00 -2.789479999999999738e-01 -8.645369999999999999e-01 5.906420000000000003e-01 1.181612000000000107e+00 -7.701120000000000188e-01 -6.092370000000000285e-01 -5.308899999999999730e-01 -7.121999999999999859e-03 -5.025999999999999912e-02 -4.641520000000000090e-01 6.478289999999999882e-01 5.561749999999999750e-01 -3.839100000000000151e-02 -8.345400000000000040e-02 -9.126349999999999740e-01 2.396780000000000022e-01 3.772010000000000085e-01 -1.894681000000000060e+00 -1.540232000000000046e+00 -1.168863999999999903e+00 4.497360000000000246e-01 -4.590770000000000128e-01 1.446760000000000046e+00 2.690699999999999759e-01 -4.695099999999999968e-02 -3.898420000000000218e-01 3.030199999999999907e-02 -5.687550000000000106e-01 -3.219750000000000112e-01 4.532120000000000037e-01 -1.901100000000000012e-01 2.653900000000000148e-01 3.912880000000000247e-01 2.505769999999999942e-01 -5.288370000000000015e-01 -7.289269999999999916e-01 1.813212999999999964e+00 2.530999999999999917e-02 2.950997999999999788e+00 -1.066030000000000033e+00 4.090840000000000032e-01 1.515125000000000055e+00 -9.132559999999999567e-01 2.297829999999999817e+00 -1.006409000000000109e+00 -5.336539999999999617e-01 9.910130000000000328e-01 -1.053770000000000095e+00 8.877270000000000438e-01 3.543749999999999956e-01 -6.295669999999999877e-01 8.354859999999999509e-01 -2.228279999999999983e-01 1.124303000000000052e+00 4.432900000000000035e-02 4.570850000000000191e-01 9.345290000000000541e-01 2.644310000000000271e-01 -8.943700000000000261e-02 8.013230000000000075e-01 -9.294280000000000319e-01 -8.726899999999999935e-02 -9.248300000000000409e-01 -2.093554000000000137e+00 3.199380000000000002e-01 1.260124999999999940e+00 -1.773835999999999968e+00 -7.570519999999999472e-01 -8.681020000000000403e-01 -4.324819999999999776e-01 -1.854416000000000064e+00 -1.251649999999999985e-01 1.187186999999999992e+00 -5.474430000000000129e-01 -2.766449999999999743e-01 9.295699999999999796e-02 6.143410000000000259e-01 -6.044599999999999973e-02 -1.948930000000000107e-01 1.000987999999999989e+00 1.858997999999999928e+00 1.819659999999999889e-01 7.783529999999999616e-01 -1.078823000000000087e+00 -2.060130000000000017e-01 1.183256000000000085e+00 -9.981710000000000305e-01 1.065689000000000108e+00 -6.501890000000000169e-01 2.275760000000000005e-01 1.268056999999999990e+00 -2.616299000000000152e+00 2.976079999999999837e-01 -1.512037000000000075e+00 7.869700000000000306e-02 1.302915000000000045e+00 -1.858339999999999992e-01 -6.017080000000000206e-01 -9.764519999999999866e-01 -1.513182999999999945e+00 4.600920000000000010e-01 -8.119760000000000311e-01 8.963500000000000634e-02 -1.275320000000000009e+00 5.447799999999999865e-02 1.303107000000000015e+00 -2.287224999999999842e+00 1.103469999999999951e+00 -1.541353999999999891e+00 1.064198999999999895e+00 3.440719999999999890e-01 -1.402014000000000093e+00 -1.284380000000000077e+00 -1.669844000000000106e+00 7.905959999999999654e-01 2.999769999999999937e-01 8.733340000000000547e-01 1.943900000000000142e-02 2.629329999999999945e+00 -3.743540000000000201e-01 -5.159000000000000391e-03 5.396990000000000398e-01 7.204380000000000228e-01 6.502869999999999484e-01 6.254200000000000037e-02 -1.093439999999999968e-01 6.853690000000000060e-01 2.347799999999999887e-01 -1.291004999999999958e+00 4.844029999999999725e-01 -1.395129999999999981e-01 1.728059999999999929e+00 -3.062900000000000067e-01 -8.234099999999999753e-01 4.894899999999999807e-01 1.296256999999999993e+00 3.178560000000000274e-01 -2.346260000000000012e-01 2.011739999999999917e-01 2.864940000000000264e-01 -1.401796000000000042e+00 -8.634939999999999838e-01 2.127305999999999919e+00 4.046440000000000037e-01 -1.009520000000000001e-01 -6.583229999999999915e-01 -2.709909999999999819e-01 -1.246563000000000088e+00 -1.522156000000000065e+00 7.249500000000000388e-02 2.827910000000000146e-01 3.669910000000000116e-01 -3.947269999999999945e-01 -5.669250000000000123e-01 1.929621999999999948e+00 1.382327000000000083e+00 9.890200000000000380e-02 1.952899999999999914e-01 -5.010300000000000170e-02 -1.921180000000000110e-01 -2.128067000000000153e+00 1.262969999999999926e+00 2.565600000000000103e-01 1.300669999999999993e+00 7.517699999999999383e-02 1.371680000000000121e-01 -4.986160000000000037e-01 -6.040739999999999998e-01 1.368114999999999970e+00 1.214829999999999938e-01 -2.249410000000000021e-01 -8.896450000000000191e-01 -9.193660000000000165e-01 -5.351569999999999938e-01 -9.129159999999999497e-01 -3.804319999999999924e-01 -8.473899999999999766e-01 1.111612000000000045e+00 4.698350000000000026e-01 -1.775649999999999951e+00 -6.376389999999999558e-01 4.394699999999999995e-02 -2.040780000000000094e-01 4.177339999999999942e-01 -2.571223999999999954e+00 1.117707999999999924e+00 5.206000000000000211e-02 -4.100099999999999856e-01 -1.370454999999999979e+00 1.053682000000000007e+00 -4.165409999999999946e-01 2.454739999999999978e-01 -1.493152999999999953e+00 2.322601000000000138e+00 1.950649999999999884e-01 1.350494000000000083e+00 -3.354530000000000012e-01 9.281939999999999635e-01 -1.516180000000000028e-01 6.888900000000000579e-02 9.236539999999999750e-01 -6.751819999999999489e-01 1.129855000000000054e+00 -6.066249999999999698e-01 1.076602999999999977e+00 -1.290615999999999985e+00 2.302881999999999874e+00 1.970904999999999907e+00 2.259189000000000114e+00 -6.640160000000000506e-01 6.613839999999999719e-01 -1.366128000000000009e+00 9.838710000000000511e-01 -6.416650000000000409e-01 1.795306999999999986e+00 -6.186660000000000492e-01 -1.803905000000000092e+00 -1.605602999999999891e+00 -4.595080000000000275e-01