1.689435000000000020e+00 -7.360250000000000403e-01 -6.179820000000000313e-01 1.781409999999999938e+00 -2.951846000000000192e+00 2.938274999999999970e+00 3.278293000000000124e+00 2.377705000000000179e+00 -3.015708000000000055e+00 1.691095999999999933e+00 -8.978899999999999382e-02 1.901186999999999960e+00 -1.763867999999999991e+00 4.504810000000000203e-01 -1.623475999999999919e+00 -5.402299999999999880e-01 8.608789999999999498e-01 -5.891880000000000450e-01 1.765899999999999970e-01 1.368919999999999915e+00 -5.577950000000000408e-01 -2.248886999999999858e+00 -1.352006000000000041e+00 3.902512000000000203e+00 1.578783000000000047e+00 5.742859999999999632e-01 -1.401332999999999940e+00 9.668940000000000312e-01 -1.800430999999999893e+00 1.431983999999999924e+00 -1.016383999999999954e+00 1.521465000000000067e+00 -1.628552000000000000e+00 -1.905952000000000091e+00 -3.084759999999999724e-01 2.940014999999999823e+00 -6.540110000000000090e-01 -7.520280000000000298e-01 -5.506259999999999488e-01 -1.602176000000000045e+00 6.008529999999999704e-01 -9.611600000000000144e-01 2.478912999999999922e+00 -2.567654999999999799e+00 -2.732168000000000152e+00 1.558597999999999928e+00 -1.558432999999999957e+00 1.926990999999999898e+00 -1.315093000000000067e+00 -8.537949999999999706e-01 2.362750000000000128e+00 3.778889999999999749e-01 1.313650999999999902e+00 -1.385769999999999946e+00 -4.678889999999999993e-01 -1.926638000000000073e+00 8.062970000000000415e-01 -3.137821999999999889e+00 8.120509999999999673e-01 -3.970368000000000119e+00 9.196459999999999635e-01 2.193678999999999935e+00 2.027439999999999909e+00 2.824889999999999901e-01 2.694039000000000073e+00 1.310964000000000018e+00 -1.258869999999999989e-01 1.394867000000000079e+00 5.614980000000000526e-01 1.006105000000000027e+00 2.005358999999999892e+00 -1.086203999999999947e+00 4.387240000000000029e-01 -1.018489999999999951e-01 -1.205346999999999946e+00 -1.315358000000000027e+00 -6.199000000000000343e-02 -1.694485000000000019e+00 7.394330000000000069e-01 1.321406000000000081e+00 -1.985238000000000058e+00 -1.975664000000000087e+00 7.832699999999999385e-02 -1.176509999999999945e+00 -2.857310000000000128e-01 -9.105860000000000065e-01 2.285573999999999995e+00 2.220164000000000026e+00 -2.156919999999999948e-01 -2.416707999999999856e+00 -3.314271999999999885e+00 -1.682757999999999976e+00 4.460988000000000397e+00 -1.042948999999999904e+00 -1.678932000000000091e+00 -1.474574000000000051e+00 -6.380249999999999533e-01 8.008400000000000241e-02 -1.421610999999999958e+00 1.064650000000000096e+00 5.911560000000000148e-01 -1.169980000000000020e+00 -2.402209999999999901e-01 7.437690000000000135e-01 2.783649999999999736e-01 -4.767919999999999936e-01 4.657109999999999861e-01 -9.231219999999999981e-01 7.628909999999999858e-01 7.643339999999999579e-01 -6.785090000000000288e-01 9.815169999999999728e-01 -1.375847999999999960e+00 -6.839450000000000252e-01 -7.719580000000000330e-01 2.214540000000000119e-01 6.077919999999999989e-01 -1.381877999999999940e+00 -6.784480000000000510e-01 8.862780000000000102e-01 5.936409999999999743e-01 1.641888999999999932e+00 9.854420000000000401e-01 4.271793999999999869e+00 -3.380711999999999939e+00 5.546221000000000068e+00 -6.443259999999999543e-01 -1.180171999999999999e+00 -1.417883999999999922e+00 -5.499199999999999922e-02 -1.006293000000000104e+00 -2.373146999999999895e+00 -2.952080000000000259e-01 -3.007498000000000005e+00 2.145436000000000121e+00 -3.767490000000000006e-01 -1.788200000000000067e-01 1.021071999999999980e+00 1.579371999999999998e+00 4.142089999999999606e+00 -2.181073000000000039e+00 1.175232999999999972e+00 -7.178959999999999786e-01 -1.546297000000000033e+00 -7.807880000000000376e-01 8.522459999999999480e-01 -4.701219999999999843e-01 -2.371990999999999961e+00 -1.349653999999999909e+00 5.038719999999999866e-01 1.457837999999999967e+00 1.795350000000000001e-01 9.055410000000000403e-01 9.499100000000000599e-02 -2.258294999999999941e+00 -1.691960000000000131e-01 1.773857999999999935e+00 -1.838533999999999891e+00 -4.615299999999999958e-01 -1.475059999999999982e-01 2.140693000000000179e+00 -2.192340000000000177e+00 -2.031719999999999970e+00 2.199192000000000036e+00 6.554900000000000171e-01 1.977742000000000111e+00 6.067740000000000355e-01 1.149029000000000078e+00 -4.001522999999999719e+00 1.429819999999999980e-01 -7.210830000000000295e-01 2.497100000000000097e+00 3.043857000000000035e+00 -1.881599999999999939e-02 -1.189300999999999942e+00 -2.136057999999999790e+00 1.670609999999999928e+00 -1.640300000000000091e-02 -7.889920000000000266e-01 -2.812000000000000055e-01 1.680215999999999932e+00 -2.358850000000000113e-01 1.545255000000000045e+00 -3.024060000000000081e-01 -3.999019999999999797e-01 -1.571055000000000090e+00 -1.004108000000000001e+00 -1.451459999999999972e-01 1.961378000000000066e+00 -8.936089999999999867e-01 -1.977154999999999996e+00 -1.119957000000000091e+00 7.397519999999999651e-01 -9.346820000000000128e-01 -2.881057000000000201e+00 9.614150000000000196e-01 1.162686000000000108e+00 -2.510367000000000015e+00 2.552840000000000109e-01 1.627518000000000020e+00 -2.407216000000000022e+00 1.688360000000000138e-01 9.988789999999999614e-01 -1.693462999999999941e+00 5.352120000000000211e-01 7.705419999999999492e-01 -5.301860000000000461e-01 -6.851739999999999498e-01 5.394360000000000266e-01 1.394841999999999915e+00 -5.602789999999999715e-01 -9.292829999999999702e-01 1.552410000000000068e+00 -1.555680000000000118e-01 -1.540165999999999924e+00 8.530830000000000357e-01 1.251249999999999862e-01 -7.010760000000000325e-01 -7.901900000000000590e-02 -2.573155999999999999e+00 -7.447899999999999521e-01 7.638939999999999619e-01 2.801404999999999923e+00 2.173620000000000108e+00 -2.514600000000000168e-01 -1.409785999999999984e+00 2.181200000000000153e-02 -1.920496999999999899e+00 -9.598280000000000145e-01 1.944920999999999900e+00 8.908080000000000442e-01 -1.810599000000000069e+00 -2.632680000000000020e-01 -1.633278999999999925e+00 1.892376999999999976e+00 2.666199000000000208e+00 -3.309555000000000025e+00 1.461351999999999984e+00 -1.550971000000000100e+00 -2.968032000000000004e+00 3.299690000000000123e-01 -1.107785999999999937e+00 5.121300000000000158e-02 4.598949999999999982e-01 1.228547000000000056e+00 -4.825099999999999945e-01 -8.079119999999999635e-01 1.415062999999999960e+00 -9.977099999999999858e-02 -1.589728000000000030e+00 6.147909999999999764e-01 -9.095640000000000391e-01 -3.074845999999999968e+00 -1.227479999999999960e-01 2.854197000000000095e+00 2.060518000000000072e+00 2.564942999999999973e+00 1.077827000000000091e+00 3.884719999999999840e-01 -1.448684000000000083e+00 4.311472000000000193e+00 -3.988410000000000011e-01 -4.179089999999999749e-01 2.173220000000000152e+00 1.407591000000000037e+00 4.705999999999999767e-02 1.928034999999999943e+00 -3.408342999999999900e+00 -8.072310000000000318e-01 2.005053999999999892e+00 -3.460509999999999975e-01 4.524850000000000261e-01 -1.472618999999999900e+00 1.824920000000000098e+00 1.079064999999999941e+00 1.775074999999999958e+00 -3.410469999999999891e-01 -7.152249999999999996e-01 1.013219999999999954e-01 1.250418000000000029e+00 -1.641310999999999964e+00 -5.825329999999999675e-01 6.949889999999999679e-01 -1.561933000000000016e+00 2.754477000000000064e+00
9.797930000000000250e-01 -9.443759999999999932e-01 -5.157859999999999667e-01 9.156630000000000047e-01 -1.748471000000000108e+00 -4.606771000000000171e+00 -5.991889999999999716e-01 -7.110600000000000254e-01 -1.499219000000000079e+00 -4.878049999999999886e-01 5.708830000000000293e-01 -1.835523000000000016e+00 2.251552999999999916e+00 3.497189000000000103e+00 2.459264000000000117e+00 -1.548716999999999899e+00 -2.639170000000000127e-01 -1.041506999999999961e+00 7.413729999999999487e-01 3.809330000000000216e-01 2.502050999999999803e+00 2.277430000000000010e-01 -3.200289999999999857e+00 1.581272000000000011e+00 -1.907990000000000075e+00 -5.331430000000000335e-01 3.725420000000000176e+00 -3.554249999999999909e-01 -2.118631999999999849e+00 1.908080999999999916e+00 -3.987160000000000148e-01 2.117395999999999834e+00 1.734998000000000040e+00 -1.973746000000000000e+00 2.829725999999999964e+00 -8.178609999999999491e-01 6.003499999999999809e-02 -9.528520000000000323e-01 3.676280000000000103e-01 1.336739999999999873e-01 3.086406000000000205e+00 -8.730919999999999792e-01 3.208269999999999733e-01 -3.962995999999999963e+00 3.281069999999999820e-01 -1.558190000000000131e-01 1.128365999999999980e+00 -1.614352999999999927e+00 -1.518061000000000105e+00 -3.452269999999999950e+00 2.275069999999999926e+00 -4.231906999999999641e+00 1.135556000000000010e+00 1.152870000000000061e+00 -1.904428000000000010e+00 1.300729999999999942e+00 5.465820000000000123e-01 1.279144000000000059e+00 -1.892659999999999898e-01 -1.259552000000000005e+00 -7.952930000000000277e-01 1.297832000000000097e+00 -3.029180000000000206e-01 1.364284999999999970e+00 1.056097999999999981e+00 -2.649242999999999792e+00 2.472005999999999926e+00 -2.067330999999999808e+00 -9.580210000000000115e-01 4.839459999999999873e-01 1.574348999999999998e+00 3.993070000000000230e-01 -1.576653000000000082e+00 1.909472999999999976e+00 1.897915999999999936e+00 -6.942190000000000305e-01 -7.528010000000000534e-01 2.153522000000000158e+00 -4.476700000000000124e-02 -5.826080000000000148e-01 -1.515411000000000064e+00 1.186649999999999983e+00 -7.577720000000000011e-01 1.687275000000000080e+00 1.523301999999999934e+00 1.777217999999999964e+00 -4.858184999999999754e+00 -2.944459999999999855e-01 -4.388690999999999676e+00 -1.975796000000000108e+00 -5.736925000000000274e+00 2.660448999999999842e+00 2.530056000000000083e+00 2.033421000000000145e+00 -1.663132999999999972e+00 -5.960990000000000455e-01 2.447980999999999963e+00 3.100370000000000070e-01 -1.856808000000000014e+00 -3.131070000000000242e-01 -1.580225999999999908e+00 1.776828999999999992e+00 -5.606710000000000305e-01 1.741638000000000019e+00 -2.294710000000000083e-01 -2.710900000000000115e-02 2.649969999999999826e-01 2.006632999999999889e+00 8.253810000000000313e-01 7.311990000000000434e-01 -8.055269999999999930e-01 2.920559999999999823e-01 2.041570000000000051e-01 1.036731000000000069e+00 -7.253960000000000408e-01 5.517269999999999675e-01 -1.090890000000000054e-01 7.100629999999999997e-01 2.149837000000000220e+00 -2.075936000000000003e+00 2.434511000000000092e+00 3.345152999999999821e+00 -2.926377000000000006e+00 1.388714000000000004e+00 -3.446339999999999959e-01 -4.170470000000000010e-01 4.511669999999999847e-01 6.869399999999999951e-01 2.525748000000000104e+00 -1.459211000000000036e+00 -1.182242000000000015e+00 -7.449430000000000218e-01 -3.881950000000000123e-01 -9.118500000000000494e-01 1.163524000000000003e+00 1.011511000000000049e+00 1.072022999999999948e+00 -2.315253999999999923e+00 -1.585831999999999908e+00 -1.446155000000000079e+00 -1.014213000000000031e+00 2.706359999999999877e-01 -7.100999999999999673e-03 -7.582910000000000483e-01 1.296310000000000073e+00 3.672619999999999774e-01 5.370719999999999938e-01 9.764650000000000274e-01 2.544499999999999887e-02 -1.006882999999999972e+00 -9.320969999999999533e-01 4.369100000000000206e-01 2.201160000000000061e-01 -1.248926999999999898e+00 -1.849234000000000044e+00 1.301829999999999932e-01 -3.372800000000000104e-02 -4.937739999999999907e-01 1.236158000000000090e+00 -1.835458000000000034e+00 -5.139280000000000515e-01 8.203169999999999629e-01 -1.070308000000000037e+00 -1.758299000000000056e+00 2.981997999999999927e+00 1.145556000000000019e+00 6.192170000000000174e-01 9.428360000000000074e-01 1.438959000000000099e+00 1.371399999999999952e+00 8.062999999999999334e-02 -8.498879999999999768e-01 1.593738000000000099e+00 -1.551554000000000100e+00 1.129672000000000009e+00 -1.776529000000000025e+00 1.208703000000000083e+00 1.941580000000000084e+00 1.624149000000000065e+00 8.612119999999999775e-01 1.837590000000000057e-01 7.758549999999999613e-01 1.336170000000000135e-01 -2.245171000000000028e+00 -8.472750000000000004e-01 -1.183187999999999906e+00 6.347909999999999942e-01 -9.440500000000000280e-02 4.525270000000000126e-01 -6.390179999999999749e-01 -2.376469999999999971e-01 -2.158624000000000098e+00 1.031479000000000035e+00 -8.148220000000000462e-01 3.254049000000000191e+00 1.085096000000000060e+00 -8.724960000000000493e-01 2.043724999999999792e+00 -8.000270000000000437e-01 -6.200200000000000156e-01 -1.905229000000000061e+00 7.013850000000000362e-01 -9.375019999999999465e-01 3.868099999999999872e-01 9.916049999999999587e-01 -1.776459999999999984e-01 2.113526999999999934e+00 -5.205729999999999524e-01 2.118881000000000014e+00 2.500049999999999772e-01 7.574980000000000047e-01 4.623550000000000160e-01 -1.206293999999999977e+00 -2.819730999999999987e+00 -1.023227000000000109e+00 -2.028959999999999930e-01 -8.242509999999999559e-01 9.506700000000000150e-01 -1.016696000000000044e+00 1.214480999999999922e+00 -7.889540000000000441e-01 7.812660000000000160e-01 -2.867299999999999849e-01 2.022279000000000160e+00 -2.317690000000000028e-01 2.705759999999999832e-01 2.674299999999999941e-02 1.377078999999999942e+00 -7.900460000000000260e-01 -5.139219999999999899e-01 1.922574000000000005e+00 5.514860000000000317e-01 -7.244939999999999714e-01 2.655410000000000270e-01 2.008718000000000004e+00 -1.286689999999999889e+00 -2.849579999999999891e-01 4.655199999999999783e+00 -2.925860999999999823e+00 -3.966920000000000002e+00 -6.846199999999999508e-02 -1.396570000000000089e+00 3.034990000000000188e-01 1.035989999999999966e-01 6.052589999999999915e-01 -3.601809999999999734e-01 -1.819882999999999917e+00 3.217897999999999925e+00 -9.415099999999999858e-02 -1.138576000000000032e+00 2.767640000000000100e-01 -2.060460000000000069e-01 2.377877999999999936e+00 -1.084543999999999953e+00 -1.275184000000000095e+00 -2.321639999999999926e+00 3.256406999999999829e+00 -1.422355999999999954e+00 -2.137040000000000051e-01 -5.724839999999999929e-01 1.438647999999999927e+00 1.865663000000000071e+00 2.581710999999999867e+00 -9.355040000000000022e-01 -3.142150000000000221e-01 1.460569999999999924e-01 6.701709999999999612e-01 -3.510225999999999846e+00 -1.334159000000000095e+00 -5.981070000000000553e-01 1.086827999999999905e+00 -1.720000000000000001e-02 -5.526550000000000074e-01 -1.916957999999999940e+00 -6.545750000000000179e-01 -9.364829999999999544e-01 1.097923999999999900e+00 3.399400000000000338e-02 -3.858999999999999930e-02 4.919379999999999864e-01 -1.168430000000000080e+00 -2.582600000000000173e-02 6.393619999999999859e-01 -1.646802000000000099e+00 1.161243000000000025e+00
2.277909999999999935e-01 -3.586678000000000033e+00 3.456770000000000120e-01 2.073116999999999877e+00 1.194393000000000038e+00 9.705979999999999608e-01 -2.004764999999999908e+00 -3.791889999999999983e-01 -1.001343000000000094e+00 -4.182919999999999972e-01 -1.163108999999999948e+00 -6.592510000000000314e-01 -1.549072999999999922e+00 1.332197000000000076e+00 -1.976090000000000069e-01 1.590330999999999939e+00 -8.351730000000000542e-01 -4.245659999999999989e-01 -9.390060000000000073e-01 -3.042529999999999957e-01 8.110070000000000334e-01 2.153068999999999900e+00 -7.410210000000000408e-01 -9.866209999999999702e-01 2.505029999999999757e-01 1.702752999999999961e+00 -6.755149999999999766e-01 -6.561890000000000223e-01 1.080175000000000107e+00 -2.529306000000000054e+00 -1.715200000000000058e-01 8.273160000000000514e-01 1.384670000000000067e-01 6.920199999999999685e-01 -1.573299999999999976e-01 2.152556000000000136e+00 6.147749999999999604e-01 -1.447743000000000002e+00 -7.907669999999999977e-01 2.457199000000000133e+00 1.358424999999999994e+00 -5.140410000000000146e+00 -9.151979999999999560e-01 -1.074405999999999972e+00 2.303189999999999960e-01 7.874399999999999455e-02 1.661070000000000046e-01 1.459991000000000039e+00 -1.970763000000000043e+00 1.561079999999999968e-01 -3.962879999999999736e-01 -1.242882999999999960e+00 -3.373909999999999965e-01 -1.991481999999999974e+00 -1.945843999999999907e+00 -3.545469999999999899e+00 1.497351000000000099e+00 3.866452999999999918e+00 -1.893604000000000065e+00 -1.354938999999999893e+00 -2.266809999999999936e-01 -3.823790000000000244e-01 -3.208170000000000188e-01 4.051319999999999921e-01 -5.303900000000000281e-01 -8.492899999999999894e-01 -3.852479999999999793e-01 -1.620638000000000023e+00 -3.829185999999999979e+00 3.417990000000000195e-01 -5.724590000000000511e-01 3.718400000000000039e-01 2.019487999999999950e+00 -8.311779999999999724e-01 1.255041999999999991e+00 -3.574769999999999892e-01 -1.131130000000000052e-01 2.083356999999999903e+00 -1.362108000000000096e+00 8.957249999999999934e-01 -1.195278999999999980e+00 -2.883233000000000157e+00 8.914309999999999734e-01 6.450100000000000278e-02 -1.120581999999999967e+00 1.651853999999999933e+00 1.556408999999999931e+00 -2.739269999999999761e-01 -2.016601000000000088e+00 9.936000000000000387e-01 5.959020000000000428e-01 9.943009999999999904e-01 -6.413450000000000539e-01 8.930090000000000527e-01 -5.306100000000000261e-01 -6.171429999999999971e-01 -6.339160000000000350e-01 8.717230000000000256e-01 1.396514999999999951e+00 -5.302930000000000144e-01 -2.051527999999999796e+00 -8.775669999999999860e-01 2.792301999999999840e+00 1.539357000000000086e+00 -2.479013999999999829e+00 2.139034999999999798e+00 2.447500000000000023e-02 -1.468129999999999991e-01 -4.538699999999999679e-02 -1.048883999999999928e+00 -4.340939999999999799e-01 6.709500000000000186e-02 1.903229999999999922e-01 -3.529755000000000198e+00 -3.764100000000000223e-01 2.322135999999999978e+00 7.551689999999999792e-01 -3.003069999999999906e-01 2.027329999999999965e-01 -3.917280000000000206e-01 -1.475036000000000014e+00 -1.574467999999999979e+00 -1.740582000000000074e+00 -8.575289999999999857e-01 -1.410269999999999913e+00 6.189160000000000217e-01 8.910700000000000287e-01 1.546869999999999967e+00 -3.720910000000000051e-01 -2.153865999999999836e+00 9.068270000000000497e-01 3.596122999999999958e+00 5.495400000000000285e-02 1.687594000000000038e+00 6.886710000000000331e-01 2.687149999999999817e-01 7.521510000000000140e-01 3.874940000000000051e-01 5.506300000000000083e-02 1.237438000000000038e+00 4.961539999999999839e-01 -1.492561000000000027e+00 1.685030999999999946e+00 -2.944000000000000089e-02 -6.666659999999999808e-01 -1.819399999999999837e-02 1.555746999999999991e+00 -1.616948000000000052e+00 -1.526035999999999948e+00 4.543490000000000029e-01 1.122088999999999892e+00 2.435687999999999853e+00 2.224387000000000114e+00 -1.289533000000000040e+00 2.012619999999999965e-01 -1.681175000000000086e+00 -6.358850000000000335e-01 1.221101999999999910e+00 -1.697781999999999902e+00 -3.724399999999999933e-01 6.041689999999999561e-01 8.352070000000000327e-01 -1.556530000000000136e-01 -9.132019999999999582e-01 1.480925000000000047e+00 1.002280000000000060e+00 2.507296999999999887e+00 3.755530000000000257e-01 -4.229459999999999886e-01 1.272156000000000065e+00 -1.237652999999999892e+00 6.671519999999999673e-01 -1.015159999999999951e-01 -1.321353000000000000e+00 8.548099999999999588e-01 8.164179999999999771e-01 1.731899000000000077e+00 2.623690000000000189e-01 -7.454180000000000250e-01 1.356935000000000002e+00 -3.405486999999999931e+00 -2.507585000000000175e+00 2.076010000000000078e-01 1.013219000000000092e+00 1.356856000000000062e+00 -4.629559999999999786e-01 2.360790999999999862e+00 1.669567000000000023e+00 1.951562000000000019e+00 2.866601999999999872e+00 -1.012180999999999997e+00 1.067701999999999929e+00 6.149000000000000299e-02 -1.292305999999999955e+00 3.278585999999999778e+00 8.741430000000000033e-01 -1.588065000000000060e+00 -1.720385000000000053e+00 -9.038880000000000248e-01 -2.362269999999999925e-01 -2.187649999999999872e-01 -1.339990000000000014e+00 1.389742000000000033e+00 9.727759999999999740e-01 -1.966606999999999994e+00 1.153329999999999966e+00 1.439513999999999960e+00 3.031010999999999900e+00 -2.211434000000000122e+00 -4.019000000000000003e-03 -8.608510000000000328e-01 1.426692000000000071e+00 1.261505000000000098e+00 -1.645709999999999951e-01 1.366516000000000064e+00 8.574019999999999975e-01 6.154330000000000078e-01 -6.506499999999999784e-02 -4.426570000000000227e-01 8.236719999999999597e-01 1.843879999999999963e+00 -7.482140000000000457e-01 -3.831999999999999851e-01 -1.129815000000000014e+00 2.610509999999999775e-01 2.020859999999999879e+00 1.085555000000000048e+00 5.170660000000000256e-01 1.603688000000000002e+00 2.030980000000000008e-01 -1.836790000000000089e-01 -4.827910000000000257e-01 3.625519999999999854e-01 -2.857000000000000164e-02 6.495689999999999520e-01 2.777020000000000044e-01 8.967570000000000263e-01 1.235454999999999970e+00 3.053870000000000196e-01 4.378659999999999775e-01 -1.925362999999999936e+00 6.910370000000000124e-01 9.880659999999999998e-01 7.617169999999999774e-01 -1.388702000000000103e+00 1.693489999999999995e-01 -1.514518999999999949e+00 2.809594999999999843e+00 8.753260000000000485e-01 7.605560000000000098e-01 -7.657650000000000290e-01 -1.301820999999999895e+00 2.145396999999999998e+00 -1.384748000000000090e+00 -6.948349999999999804e-01 8.510119999999999907e-01 2.839139999999999997e-01 -5.033670000000000089e-01 -3.070669999999999789e+00 -1.402512999999999899e+00 3.507273000000000085e+00 6.923749999999999627e-01 -2.295563000000000020e+00 -1.210043999999999897e+00 -3.749730000000000008e-01 3.028499999999999942e-02 -2.974215000000000053e+00 -1.537342999999999904e+00 -3.122189000000000103e+00 -6.550650000000000084e-01 1.081680000000000003e-01 4.875189999999999801e-01 1.085013999999999923e+00 -4.441280000000000228e-01 -1.985500000000000043e-01 -1.385224000000000011e+00 -3.713090000000000002e-01 2.702620000000000022e-01 3.188590000000000035e-01 1.002126000000000072e+00 1.645046999999999926e+00 -5.343400000000000233e-02 -1.719697999999999949e+00 -8.811120000000000063e-01 1.494199999999999973e-01
-1.241136000000000017e+00 -2.317565000000000097e+00 -2.520509999999999806e+00 -7.550369999999999582e-01 -3.036538999999999877e+00 -3.370029999999999970e-01 1.848239999999999883e-01 1.468599999999999905e+00 3.985980000000000079e-01 -4.713930000000000065e-01 1.285533999999999955e+00 1.612583000000000100e+00 2.385301000000000116e+00 -1.904118999999999895e+00 -1.472030000000000005e-01 -1.196995999999999949e+00 -2.871589999999999976e-01 2.469444000000000194e+00 3.934019999999999739e-01 1.468720000000000026e+00 5.323599999999999860e-02 -1.735510000000000108e+00 1.980121000000000020e+00 -9.046579999999999622e-01 -7.869709999999999761e-01 2.003328999999999915e+00 -1.082339999999999969e-01 -5.314969999999999972e-01 4.897830000000000239e-01 3.414654000000000078e+00 8.242479999999999807e-01 -1.738124999999999920e+00 4.980799999999999811e-02 6.513560000000000461e-01 1.311207999999999929e+00 6.040510000000000046e-01 -4.335270999999999653e+00 -1.734799999999999898e+00 -2.301432000000000144e+00 1.484709999999999974e+00 1.383156999999999970e+00 1.491635000000000044e+00 -1.358633999999999897e+00 1.922975000000000101e+00 -6.187529999999999974e-01 1.738820000000000088e-01 -6.707359999999999989e-01 -2.192308000000000145e+00 1.092948000000000031e+00 -2.364697000000000049e+00 3.025599999999999956e-01 8.316989999999999661e-01 -6.527129999999999876e-01 2.932529999999999859e-01 3.495800000000000018e-01 -1.380144000000000037e+00 5.465950000000000530e-01 3.188969999999999860e-01 3.070280000000000231e-01 3.683939999999999992e-01 6.876200000000000367e-02 -1.122082999999999942e+00 2.485720000000000152e+00 3.730805999999999845e+00 2.355319999999999914e-01 -7.506239999999999579e-01 -4.099699999999999872e-02 2.015438000000000063e+00 7.936590000000000034e-01 3.032865000000000144e+00 3.038790000000000102e-01 1.450884999999999980e+00 -1.020734000000000030e+00 -6.932300000000000129e-01 1.570775999999999950e+00 1.365402000000000005e+00 -3.285965000000000025e+00 1.382457000000000047e+00 1.361847999999999947e+00 1.988490000000000091e+00 -1.664519999999999889e-01 -5.437220000000000386e-01 -2.163625999999999827e+00 -1.145902999999999894e+00 -1.469907000000000075e+00 3.439510999999999985e+00 1.252280999999999977e+00 -2.391979000000000077e+00 7.691010000000000346e-01 -1.725991999999999971e+00 -1.878605000000000080e+00 2.065930999999999962e+00 4.148431999999999675e+00 -6.641600000000000281e-02 2.423957999999999835e+00 -3.083727999999999803e+00 1.582511999999999919e+00 -3.069399999999999906e-01 -3.836030000000000273e-01 -2.326922000000000157e+00 9.151089999999999502e-01 -8.032340000000000035e-01 1.934962999999999989e+00 -2.816450000000000120e+00 1.680255000000000054e+00 -1.912870000000000126e-01 5.889600000000000390e-01 -2.808142000000000138e+00 -1.499651000000000067e+00 9.474829999999999641e-01 3.130780000000000229e-01 1.045420999999999934e+00 3.472899999999999876e-01 -1.979006000000000043e+00 8.928639999999999910e-01 7.874630000000000241e-01 -2.703470000000000040e-01 1.781028000000000056e+00 2.387070000000000025e+00 1.277728999999999893e+00 1.700337999999999905e+00 5.861910000000000176e-01 1.009457999999999966e+00 3.819549999999999890e-01 2.264107000000000092e+00 8.170999999999999444e-03 -2.743438999999999961e+00 -2.514365999999999879e+00 -1.039699999999999999e-02 1.217791000000000068e+00 1.819139999999999924e-01 -4.663280000000000203e-01 -2.140550000000000175e+00 -2.208950000000000191e+00 -1.735144999999999937e+00 -1.156970000000000054e+00 -1.220731999999999928e+00 7.675100000000000255e-01 -7.355059999999999931e-01 -4.563699999999999979e-01 -6.348040000000000349e-01 -4.087830000000000075e-01 1.577347999999999972e+00 -1.844994000000000023e+00 -1.267168000000000072e+00 2.034784000000000148e+00 -6.059539999999999926e-01 1.278070999999999957e+00 7.123629999999999685e-01 -1.241770000000000040e+00 -5.717790000000000372e-01 -6.578399999999999526e-02 2.223080000000000056e-01 -1.573620000000000019e+00 -2.360768999999999895e+00 -6.740899999999999670e-02 4.235079999999999956e-01 -4.189930000000000043e-01 1.376427000000000067e+00 2.193722000000000172e+00 -1.835217000000000098e+00 3.538640000000000119e-01 -9.819100000000000050e-02 -1.228596000000000021e+00 9.843570000000000375e-01 2.039680000000000104e-01 7.730550000000000477e-01 6.729070000000000329e-01 3.861899999999999777e-01 1.002715000000000023e+00 1.401026000000000105e+00 1.073987999999999943e+00 -1.064102000000000103e+00 2.791024999999999867e+00 2.014088999999999796e+00 -1.362599999999999922e-01 -1.746842999999999924e+00 -1.003190999999999944e+00 -4.417820000000000080e-01 2.557551999999999826e+00 1.132657999999999943e+00 6.596410000000000329e-01 -9.471209999999999907e-01 -1.863845999999999892e+00 -1.936319999999999986e-01 1.198304999999999954e+00 -1.151880000000000015e+00 8.818600000000000050e-02 -3.323799999999999671e-02 1.721524999999999972e+00 2.091260000000000063e-01 -1.075529999999999958e-01 -6.986510000000000220e-01 -1.627450000000000008e-01 -5.245020000000000238e-01 -3.352247999999999895e+00 -2.312790000000000123e-01 -1.455413000000000068e+00 1.902190000000000047e+00 -2.749020999999999937e+00 -8.701140000000000541e-01 1.304947000000000079e+00 -4.798799999999999732e-01 -1.993753000000000108e+00 -1.300661000000000067e+00 -2.035629999999999939e-01 -1.535088999999999926e+00 -2.995209999999999817e-01 7.838330000000000020e-01 -8.478499999999999925e-02 8.470600000000000351e-02 5.300300000000000011e-01 -2.945309999999999873e-01 2.013902999999999999e+00 7.911019999999999719e-01 1.652252999999999972e+00 1.626641999999999921e+00 8.412450000000000205e-01 -5.659330000000000194e-01 1.641078000000000037e+00 1.102187999999999946e+00 2.025309999999999888e-01 3.016090000000000160e-01 5.776229999999999976e-01 -2.300482000000000138e+00 1.203027999999999986e+00 -1.013941999999999899e+00 3.895859999999999879e-01 -5.350099999999999995e-02 -1.730599999999999847e-02 -1.561916000000000082e+00 4.376639999999999975e-01 -1.871053000000000077e+00 -1.983459999999999945e-01 -3.767059999999999853e-01 3.569399999999999656e-02 -6.782460000000000155e-01 -7.212330000000000130e-01 -8.982099999999999806e-02 -1.146676000000000029e+00 1.920045999999999919e+00 3.641099999999999892e-02 -8.438130000000000353e-01 1.805028999999999995e+00 -2.965958000000000094e+00 -9.136290000000000244e-01 6.911999999999999741e-03 -8.922470000000000123e-01 -3.030530000000000168e-01 -9.094529999999999559e-01 2.832784000000000191e+00 1.158166999999999947e+00 -1.562321999999999989e+00 7.870660000000000434e-01 2.961650000000000116e-01 2.622869999999999924e-01 -1.315712999999999910e+00 -1.349640000000000006e-01 -6.903820000000000512e-01 2.106971999999999845e+00 -1.093911000000000078e+00 -1.179314999999999891e+00 1.940074999999999994e+00 -1.678385000000000016e+00 -1.935596000000000094e+00 5.146779999999999688e-01 -7.858289999999999997e-01 5.166070000000000384e-01 -2.121169000000000082e+00 1.363814000000000082e+00 2.574290000000000189e-01 -9.127300000000000413e-01 -4.574509999999999965e-01 -2.229750000000000121e+00 -2.436062000000000172e+00 2.779504000000000197e+00 1.628220999999999918e+00 1.320645000000000069e+00 1.267330000000000123e-01 -2.446089999999999931e-01 1.192441000000000084e+00 4.784829999999999917e-01 -2.015883999999999787e+00 -2.349569999999999992e-01 1.359280000000000044e+00