1.011337832399999925e+01 0.000000000000000000e+00 0.000000000000000000e+00 -5.178237299999999960e-02 1.013698214299999911e+01 0.000000000000000000e+00 -5.678311600000000153e-02 3.907995799999999798e-02 1.055374278400000065e+01
1.025154384500000049e+01 0.000000000000000000e+00 0.000000000000000000e+00 -5.248980599999999996e-02 1.027547013100000051e+01 0.000000000000000000e+00 -5.755886699999999967e-02 3.961385500000000337e-02 1.069792441300000085e+01
1.019948634700000056e+01 0.000000000000000000e+00 0.000000000000000000e+00 7.661624799999999791e-02 1.027600108899999931e+01 0.000000000000000000e+00 -2.340449199999999896e-02 9.927962999999999372e-02 1.062817713899999994e+01
1.025136502299999997e+01 0.000000000000000000e+00 0.000000000000000000e+00 7.700594900000000409e-02 1.032826895000000000e+01 0.000000000000000000e+00 -2.352353700000000061e-02 9.978460599999999792e-02 1.068223630800000024e+01
1.040178374099999914e+01 0.000000000000000000e+00 0.000000000000000000e+00 -5.325906200000000285e-02 1.042606067500000044e+01 0.000000000000000000e+00 -5.840241200000000077e-02 4.019440999999999986e-02 1.085470617000000004e+01
1.022726615400000050e+01 0.000000000000000000e+00 0.000000000000000000e+00 7.682492400000000277e-02 1.030398929499999916e+01 0.000000000000000000e+00 -2.346823799999999891e-02 9.955003299999999611e-02 1.065712454800000053e+01
1.017418451400000023e+01 0.000000000000000000e+00 0.000000000000000000e+00 7.642618599999999318e-02 1.025050944600000058e+01 0.000000000000000000e+00 -2.334643299999999977e-02 9.903334799999999327e-02 1.060181185399999926e+01
1.037126905100000052e+01 0.000000000000000000e+00 0.000000000000000000e+00 -5.310282100000000144e-02 1.039547476699999962e+01 0.000000000000000000e+00 -5.823108300000000292e-02 4.007649600000000312e-02 1.082286278599999996e+01
1.007205337499999942e+01 0.000000000000000000e+00 0.000000000000000000e+00 7.565900000000000403e-02 1.014761213699999942e+01 0.000000000000000000e+00 -2.311207499999999929e-02 9.803922499999999374e-02 1.049538807899999959e+01
1.025228314399999974e+01 0.000000000000000000e+00 0.000000000000000000e+00 7.701284599999999592e-02 1.032919395699999932e+01 0.000000000000000000e+00 -2.352564299999999886e-02 9.979354299999999844e-02 1.068319301800000076e+01
1.010065189300000021e+01 0.000000000000000000e+00 0.000000000000000000e+00 7.587382600000000532e-02 1.017642519700000037e+01 0.000000000000000000e+00 -2.317769899999999952e-02 9.831759700000000657e-02 1.052518861100000080e+01
1.039165925900000076e+01 0.000000000000000000e+00 0.000000000000000000e+00 -5.320722299999999794e-02 1.041591256399999921e+01 0.000000000000000000e+00 -5.834556700000000096e-02 4.015528699999999784e-02 1.084414083999999967e+01
1.030023874399999961e+01 0.000000000000000000e+00 0.000000000000000000e+00 -5.273913300000000054e-02 1.032427868000000082e+01 0.000000000000000000e+00 -5.783227199999999707e-02 3.980202099999999993e-02 1.074873962300000052e+01
1.011321344799999977e+01 0.000000000000000000e+00 0.000000000000000000e+00 7.596818499999999363e-02 1.018908098500000037e+01 0.000000000000000000e+00 -2.320652399999999921e-02 9.843986799999999981e-02 1.053827813500000055e+01
1.030233359400000026e+01 0.000000000000000000e+00 0.000000000000000000e+00 -5.274985900000000311e-02 1.032637841999999928e+01 0.000000000000000000e+00 -5.784403400000000250e-02 3.981011599999999956e-02 1.075092568800000059e+01
1.008319990999999938e+01 0.000000000000000000e+00 0.000000000000000000e+00 7.574272999999999423e-02 1.015884229199999922e+01 0.000000000000000000e+00 -2.313765300000000108e-02 9.814772300000000615e-02 1.050700310999999942e+01
1.013946366799999943e+01 0.000000000000000000e+00 0.000000000000000000e+00 7.616537099999999560e-02 1.021552812999999915e+01 0.000000000000000000e+00 -2.326676000000000091e-02 9.869538199999999817e-02 1.056563166900000006e+01
1.033181754599999991e+01 0.000000000000000000e+00 0.000000000000000000e+00 -5.290082200000000012e-02 1.035593118399999923e+01 0.000000000000000000e+00 -5.800957600000000020e-02 3.992404799999999671e-02 1.078169345300000082e+01
1.031244107700000079e+01 0.000000000000000000e+00 0.000000000000000000e+00 7.746473900000000468e-02 1.038980318499999989e+01 0.000000000000000000e+00 -2.366368599999999975e-02 1.003791079999999947e-01 1.074587942600000012e+01
1.027628734600000016e+01 0.000000000000000000e+00 0.000000000000000000e+00 7.719315999999999678e-02 1.035337823499999921e+01 0.000000000000000000e+00 -2.358072500000000030e-02 1.000271949999999993e-01 1.070820613100000074e+01
1.021721766900000006e+01 0.000000000000000000e+00 0.000000000000000000e+00 7.674944200000000105e-02 1.029386542800000015e+01 0.000000000000000000e+00 -2.344517999999999949e-02 9.945222300000000626e-02 1.064665371899999968e+01
1.024391678099999936e+01 0.000000000000000000e+00 0.000000000000000000e+00 7.694999900000000503e-02 1.032076483200000006e+01 0.000000000000000000e+00 -2.350644500000000081e-02 9.971210699999999427e-02 1.067447501100000018e+01
1.013709220700000024e+01 0.000000000000000000e+00 0.000000000000000000e+00 7.614755700000000460e-02 1.021313887900000061e+01 0.000000000000000000e+00 -2.326131799999999958e-02 9.867229900000000498e-02 1.056316053399999966e+01
1.032870449500000021e+01 0.000000000000000000e+00 0.000000000000000000e+00 7.758690599999999715e-02 1.040618860800000078e+01 0.000000000000000000e+00 -2.370100500000000068e-02 1.005374120000000066e-01 1.076282640600000029e+01
1.020692713100000049e+01 0.000000000000000000e+00 0.000000000000000000e+00 7.667214199999999868e-02 1.028349769199999919e+01 0.000000000000000000e+00 -2.342156600000000130e-02 9.935205699999999363e-02 1.063593066299999990e+01
1.021798815800000071e+01 0.000000000000000000e+00 0.000000000000000000e+00 -5.231799499999999908e-02 1.024183612799999921e+01 0.000000000000000000e+00 -5.737046400000000296e-02 3.948419000000000234e-02 1.066290761900000028e+01
1.014955480599999937e+01 0.000000000000000000e+00 0.000000000000000000e+00 7.624117399999999489e-02 1.022569496999999927e+01 0.000000000000000000e+00 -2.328991500000000131e-02 9.879360700000000550e-02 1.057614694299999947e+01
1.016759697100000004e+01 0.000000000000000000e+00 0.000000000000000000e+00 -5.205998199999999770e-02 1.019132733200000018e+01 0.000000000000000000e+00 -5.708753500000000175e-02 3.928946900000000048e-02 1.061032226000000023e+01
1.025904362700000050e+01 0.000000000000000000e+00 0.000000000000000000e+00 7.706362899999999461e-02 1.033600515600000058e+01 0.000000000000000000e+00 -2.354115600000000058e-02 9.985934800000000056e-02 1.069023764800000009e+01
1.001301657199999973e+01 0.000000000000000000e+00 0.000000000000000000e+00 7.521552900000000319e-02 1.008813244999999981e+01 0.000000000000000000e+00 -2.297660500000000064e-02 9.746457299999999879e-02 1.043386992199999952e+01
1.038716861099999988e+01 0.000000000000000000e+00 0.000000000000000000e+00 -5.318422999999999901e-02 1.041141143399999969e+01 0.000000000000000000e+00 -5.832035299999999839e-02 4.013793499999999959e-02 1.083945465599999913e+01
1.026932507000000072e+01 0.000000000000000000e+00 0.000000000000000000e+00 -5.258084899999999895e-02 1.029329285700000085e+01 0.000000000000000000e+00 -5.765870299999999865e-02 3.968256500000000297e-02 1.071647988199999979e+01
1.029436138300000003e+01 0.000000000000000000e+00 0.000000000000000000e+00 7.732892800000000511e-02 1.037158785999999999e+01 0.000000000000000000e+00 -2.362219899999999997e-02 1.002031240000000045e-01 1.072703983100000080e+01
1.019074877499999943e+01 0.000000000000000000e+00 0.000000000000000000e+00 7.655061300000000346e-02 1.026719796899999970e+01 0.000000000000000000e+00 -2.338444199999999834e-02 9.919458100000000389e-02 1.061907232100000087e+01
1.020566301200000048e+01 0.000000000000000000e+00 0.000000000000000000e+00 7.666264600000000096e-02 1.028222408999999971e+01 0.000000000000000000e+00 -2.341866500000000170e-02 9.933975300000000286e-02 1.063461341300000029e+01
1.037568694800000024e+01 0.000000000000000000e+00 0.000000000000000000e+00 7.793982700000000319e-02 1.045352351600000063e+01 0.000000000000000000e+00 -2.380881500000000053e-02 1.009947300000000048e-01 1.081178356100000038e+01
1.012384373899999979e+01 0.000000000000000000e+00 0.000000000000000000e+00 -5.183595800000000142e-02 1.014747198300000086e+01 0.000000000000000000e+00 -5.684187500000000004e-02 3.912039900000000014e-02 1.056466389100000036e+01
1.027564717499999958e+01 0.000000000000000000e+00 0.000000000000000000e+00 -5.261321900000000273e-02 1.029962971600000010e+01 0.000000000000000000e+00 -5.769419900000000156e-02 3.970699500000000187e-02 1.072307726800000083e+01
1.015102499700000038e+01 0.000000000000000000e+00 0.000000000000000000e+00 -5.197513100000000080e-02 1.017471667999999951e+01 0.000000000000000000e+00 -5.699448900000000234e-02 3.922543199999999758e-02 1.059302869599999930e+01
1.037763592900000020e+01 0.000000000000000000e+00 0.000000000000000000e+00 7.795446799999999898e-02 1.045548711700000055e+01 0.000000000000000000e+00 -2.381328699999999896e-02 1.010136999999999979e-01 1.081381445899999960e+01
1.014079442200000081e+01 0.000000000000000000e+00 0.000000000000000000e+00 -5.192274799999999774e-02 1.016446222799999966e+01 0.000000000000000000e+00 -5.693704799999999705e-02 3.918589900000000320e-02 1.058235265399999925e+01
1.016386058800000036e+01 0.000000000000000000e+00 0.000000000000000000e+00 7.634863499999999803e-02 1.024010807199999995e+01 0.000000000000000000e+00 -2.332274200000000047e-02 9.893285699999999905e-02 1.059105400700000033e+01
1.005947254199999996e+01 0.000000000000000000e+00 0.000000000000000000e+00 7.556449599999999489e-02 1.013493692499999987e+01 0.000000000000000000e+00 -2.308320599999999848e-02 9.791676600000000230e-02 1.048227846600000035e+01
1.031525246900000070e+01 0.000000000000000000e+00 0.000000000000000000e+00 -5.281600599999999868e-02 1.033932744600000042e+01 0.000000000000000000e+00 -5.791656900000000108e-02 3.986003700000000094e-02 1.076440708700000037e+01
1.021999306899999915e+01 0.000000000000000000e+00 0.000000000000000000e+00 7.677029000000000492e-02 1.029666164800000061e+01 0.000000000000000000e+00 -2.345154799999999914e-02 9.947923799999999761e-02 1.064954577099999966e+01
1.004472959699999990e+01 0.000000000000000000e+00 0.000000000000000000e+00 -5.143087899999999879e-02 1.006817319600000005e+01 0.000000000000000000e+00 -5.639767700000000022e-02 3.881468700000000049e-02 1.048210490099999959e+01
1.023509137899999999e+01 0.000000000000000000e+00 0.000000000000000000e+00 7.688370499999999663e-02 1.031187322299999920e+01 0.000000000000000000e+00 -2.348619399999999843e-02 9.962620199999999704e-02 1.066527867199999946e+01
1.029570805300000025e+01 0.000000000000000000e+00 0.000000000000000000e+00 7.733904399999999568e-02 1.037294463299999947e+01 0.000000000000000000e+00 -2.362528900000000071e-02 1.002162320000000023e-01 1.072844310300000004e+01
1.015119485900000029e+01 0.000000000000000000e+00 0.000000000000000000e+00 7.625349300000000552e-02 1.022734732700000038e+01 0.000000000000000000e+00 -2.329367900000000116e-02 9.880957099999999882e-02 1.057785593000000013e+01
1.005562067400000004e+01 0.000000000000000000e+00 0.000000000000000000e+00 -5.148664299999999860e-02 1.007908969100000007e+01 0.000000000000000000e+00 -5.645882700000000309e-02 3.885677199999999776e-02 1.049347020499999950e+01
1.028219410400000022e+01 0.000000000000000000e+00 0.000000000000000000e+00 -5.264674099999999690e-02 1.030619192600000034e+01 0.000000000000000000e+00 -5.773095799999999889e-02 3.973229400000000133e-02 1.072990926900000019e+01
1.034263704399999995e+01 0.000000000000000000e+00 0.000000000000000000e+00 -5.295621999999999829e-02 1.036677593499999972e+01 0.000000000000000000e+00 -5.807032399999999955e-02 3.996585600000000099e-02 1.079298406200000038e+01
1.012507231000000019e+01 0.000000000000000000e+00 0.000000000000000000e+00 7.605726699999999785e-02 1.020102881100000047e+01 0.000000000000000000e+00 -2.323373600000000136e-02 9.855529999999999846e-02 1.055063543300000006e+01
1.029222382200000041e+01 0.000000000000000000e+00 0.000000000000000000e+00 -5.269809500000000035e-02 1.031624505199999930e+01 0.000000000000000000e+00 -5.778727100000000116e-02 3.977105000000000223e-02 1.074037570900000027e+01
1.036365604200000057e+01 0.000000000000000000e+00 0.000000000000000000e+00 -5.306384100000000048e-02 1.038784398900000028e+01 0.000000000000000000e+00 -5.818833799999999917e-02 4.004707799999999984e-02 1.081491828499999919e+01
1.029802314600000024e+01 0.000000000000000000e+00 0.000000000000000000e+00 -5.272778899999999713e-02 1.032205791099999992e+01 0.000000000000000000e+00 -5.781983200000000156e-02 3.979346000000000272e-02 1.074642755200000011e+01
1.036303565899999946e+01 0.000000000000000000e+00 0.000000000000000000e+00 -5.306066499999999991e-02 1.038722215800000015e+01 0.000000000000000000e+00 -5.818485500000000060e-02 4.004467999999999916e-02 1.081427088899999944e+01
1.013267911500000018e+01 0.000000000000000000e+00 0.000000000000000000e+00 -5.188119599999999748e-02 1.015632798000000037e+01 0.000000000000000000e+00 -5.689148299999999964e-02 3.915454000000000157e-02 1.057388398400000007e+01
1.000333554600000063e+01 0.000000000000000000e+00 0.000000000000000000e+00 -5.121893300000000121e-02 1.002668253400000076e+01 0.000000000000000000e+00 -5.616526399999999947e-02 3.865473299999999668e-02 1.043890843800000034e+01
1.017060919999999946e+01 0.000000000000000000e+00 0.000000000000000000e+00 7.639932900000000193e-02 1.024690731099999930e+01 0.000000000000000000e+00 -2.333822799999999906e-02 9.899854600000000671e-02 1.059808626699999934e+01
1.036530189800000024e+01 0.000000000000000000e+00 0.000000000000000000e+00 -5.307226799999999883e-02 1.038949368699999987e+01 0.000000000000000000e+00 -5.819757899999999928e-02 4.005343799999999677e-02 1.081663580700000082e+01
1.002239421500000027e+01 0.000000000000000000e+00 0.000000000000000000e+00 7.528597200000000655e-02 1.009758044300000002e+01 0.000000000000000000e+00 -2.299812299999999879e-02 9.755585299999999793e-02 1.044364171399999996e+01
1.033803979300000009e+01 0.000000000000000000e+00 0.000000000000000000e+00 -5.293268100000000226e-02 1.036216795400000024e+01 0.000000000000000000e+00 -5.804451199999999950e-02 3.994809199999999755e-02 1.078818663400000055e+01
1.018402261900000028e+01 0.000000000000000000e+00 0.000000000000000000e+00 7.650008799999999387e-02 1.026042135399999999e+01 0.000000000000000000e+00 -2.336900800000000014e-02 9.912911000000000639e-02 1.061206345999999989e+01
1.019051671299999917e+01 0.000000000000000000e+00 0.000000000000000000e+00 7.654887000000000497e-02 1.026696416599999928e+01 0.000000000000000000e+00 -2.338391000000000081e-02 9.919232199999999944e-02 1.061883050500000003e+01
1.011094192400000047e+01 0.000000000000000000e+00 0.000000000000000000e+00 7.595112199999999592e-02 1.018679242099999982e+01 0.000000000000000000e+00 -2.320131099999999877e-02 9.841775799999999408e-02 1.053591113799999945e+01
1.022034293099999935e+01 0.000000000000000000e+00 0.000000000000000000e+00 -5.233005100000000243e-02 1.024419639699999962e+01 0.000000000000000000e+00 -5.738368499999999678e-02 3.949328900000000087e-02 1.066536492500000044e+01
1.015160231099999955e+01 0.000000000000000000e+00 0.000000000000000000e+00 7.625655400000000417e-02 1.022775783500000024e+01 0.000000000000000000e+00 -2.329461400000000168e-02 9.881353700000000684e-02 1.057828050700000055e+01
1.018570502600000083e+01 0.000000000000000000e+00 0.000000000000000000e+00 7.651272600000000312e-02 1.026211638300000040e+01 0.000000000000000000e+00 -2.337286800000000150e-02 9.914548600000000489e-02 1.061381657999999995e+01
1.014084329299999965e+01 0.000000000000000000e+00 0.000000000000000000e+00 7.617573499999999442e-02 1.021691810499999953e+01 0.000000000000000000e+00 -2.326992500000000033e-02 9.870881099999999353e-02 1.056706928100000020e+01
1.004025932599999926e+01 0.000000000000000000e+00 0.000000000000000000e+00 7.542016999999999471e-02 1.011557957499999993e+01 0.000000000000000000e+00 -2.303911800000000079e-02 9.772974800000000517e-02 1.046225770600000082e+01
1.031510177300000031e+01 0.000000000000000000e+00 0.000000000000000000e+00 7.748472500000000429e-02 1.039248384100000067e+01 0.000000000000000000e+00 -2.366979199999999853e-02 1.004050060000000050e-01 1.074865195299999954e+01
1.012393440299999980e+01 0.000000000000000000e+00 0.000000000000000000e+00 7.604871900000000073e-02 1.019988236700000073e+01 0.000000000000000000e+00 -2.323112499999999830e-02 9.854422399999999971e-02 1.054944969900000018e+01
1.030864316100000089e+01 0.000000000000000000e+00 0.000000000000000000e+00 7.743620900000000584e-02 1.038597677799999985e+01 0.000000000000000000e+00 -2.365497100000000033e-02 1.003421399999999963e-01 1.074192188199999975e+01
1.022105394099999920e+01 0.000000000000000000e+00 0.000000000000000000e+00 -5.233369200000000110e-02 1.024490906599999995e+01 0.000000000000000000e+00 -5.738767699999999805e-02 3.949603699999999773e-02 1.066610689400000034e+01
1.013009537299999963e+01 0.000000000000000000e+00 0.000000000000000000e+00 -5.186796700000000093e-02 1.015373820900000013e+01 0.000000000000000000e+00 -5.687697600000000270e-02 3.914455599999999702e-02 1.057118773900000086e+01
9.995776048999999830e+00 0.000000000000000000e+00 0.000000000000000000e+00 7.508602200000000226e-02 1.007076259199999946e+01 0.000000000000000000e+00 -2.293704300000000071e-02 9.729675799999999708e-02 1.041590476900000084e+01
1.029046696200000000e+01 0.000000000000000000e+00 0.000000000000000000e+00 7.729967399999999877e-02 1.036766422400000032e+01 0.000000000000000000e+00 -2.361326299999999892e-02 1.001652160000000014e-01 1.072298172600000044e+01
1.028460743399999977e+01 0.000000000000000000e+00 0.000000000000000000e+00 -5.265909800000000140e-02 1.030861088800000047e+01 0.000000000000000000e+00 -5.774450799999999995e-02 3.974161899999999886e-02 1.073242768200000086e+01
1.028329186100000037e+01 0.000000000000000000e+00 0.000000000000000000e+00 7.724577600000000210e-02 1.036043529600000035e+01 0.000000000000000000e+00 -2.359679799999999869e-02 1.000953750000000003e-01 1.071550505000000086e+01
1.005224812700000037e+01 0.000000000000000000e+00 0.000000000000000000e+00 -5.146937499999999777e-02 1.007570927199999922e+01 0.000000000000000000e+00 -5.643989099999999898e-02 3.884374000000000160e-02 1.048995080799999968e+01
1.030524639899999961e+01 0.000000000000000000e+00 0.000000000000000000e+00 -5.276477300000000092e-02 1.032929802299999977e+01 0.000000000000000000e+00 -5.786038899999999818e-02 3.982137200000000071e-02 1.075396532499999935e+01
1.021757027700000009e+01 0.000000000000000000e+00 0.000000000000000000e+00 7.675208999999999504e-02 1.029422068100000054e+01 0.000000000000000000e+00 -2.344598900000000041e-02 9.945565500000000392e-02 1.064702114800000032e+01
1.019669601999999919e+01 0.000000000000000000e+00 0.000000000000000000e+00 7.659528799999999749e-02 1.027318982899999966e+01 0.000000000000000000e+00 -2.339808900000000039e-02 9.925246999999999542e-02 1.062526953300000088e+01
1.032777015799999987e+01 0.000000000000000000e+00 0.000000000000000000e+00 -5.288009899999999985e-02 1.035187434999999923e+01 0.000000000000000000e+00 -5.798685199999999845e-02 3.990840799999999938e-02 1.077746982999999936e+01
1.017139434099999917e+01 0.000000000000000000e+00 0.000000000000000000e+00 7.640522700000000611e-02 1.024769834199999963e+01 0.000000000000000000e+00 -2.334003000000000119e-02 9.900618899999999445e-02 1.059890440799999922e+01
1.022098141799999915e+01 0.000000000000000000e+00 0.000000000000000000e+00 -5.233332100000000209e-02 1.024483637400000013e+01 0.000000000000000000e+00 -5.738726999999999717e-02 3.949575699999999939e-02 1.066603121400000020e+01
1.033836739800000082e+01 0.000000000000000000e+00 0.000000000000000000e+00 7.765949099999999716e-02 1.041592400100000049e+01 0.000000000000000000e+00 -2.372317900000000049e-02 1.006314690000000012e-01 1.077289544699999979e+01
1.030229812800000033e+01 0.000000000000000000e+00 0.000000000000000000e+00 7.738854700000000197e-02 1.037958414500000082e+01 0.000000000000000000e+00 -2.364041100000000006e-02 1.002803780000000033e-01 1.073531016299999941e+01
1.040904935200000025e+01 0.000000000000000000e+00 0.000000000000000000e+00 -5.329626300000000344e-02 1.043334324399999957e+01 0.000000000000000000e+00 -5.844320599999999755e-02 4.022248600000000174e-02 1.086228814599999914e+01
1.007124658100000048e+01 0.000000000000000000e+00 0.000000000000000000e+00 -5.156664999999999860e-02 1.009475206800000002e+01 0.000000000000000000e+00 -5.654656100000000213e-02 3.891715400000000241e-02 1.050977650699999977e+01
1.014043583900000023e+01 0.000000000000000000e+00 0.000000000000000000e+00 7.617267399999999578e-02 1.021650759399999941e+01 0.000000000000000000e+00 -2.326898999999999981e-02 9.870484499999999939e-02 1.056664470099999953e+01
1.008195933000000011e+01 0.000000000000000000e+00 0.000000000000000000e+00 7.573341100000000048e-02 1.015759240500000082e+01 0.000000000000000000e+00 -2.313480600000000081e-02 9.813564700000000640e-02 1.050571038800000068e+01
1.025715120199999930e+01 0.000000000000000000e+00 0.000000000000000000e+00 7.704941299999999715e-02 1.033409853500000075e+01 0.000000000000000000e+00 -2.353681399999999965e-02 9.984092799999999546e-02 1.068826568399999921e+01
1.028313821399999917e+01 0.000000000000000000e+00 0.000000000000000000e+00 -5.265157499999999907e-02 1.030713823900000037e+01 0.000000000000000000e+00 -5.773625899999999811e-02 3.973594200000000326e-02 1.073089448900000065e+01
1.009591741400000053e+01 0.000000000000000000e+00 0.000000000000000000e+00 7.583826100000000403e-02 1.017165520000000001e+01 0.000000000000000000e+00 -2.316683500000000021e-02 9.827151200000000530e-02 1.052025513899999964e+01
1.031217488399999915e+01 0.000000000000000000e+00 0.000000000000000000e+00 -5.280024800000000101e-02 1.033624267799999963e+01 0.000000000000000000e+00 -5.789928999999999909e-02 3.984814500000000148e-02 1.076119549500000083e+01
1.008399092900000049e+01 0.000000000000000000e+00 0.000000000000000000e+00 -5.163190399999999930e-02 1.010752616000000081e+01 0.000000000000000000e+00 -5.661811600000000305e-02 3.896639999999999826e-02 1.052307577999999921e+01
1.033791964799999974e+01 0.000000000000000000e+00 0.000000000000000000e+00 -5.293206599999999984e-02 1.036204752799999973e+01 0.000000000000000000e+00 -5.804383700000000090e-02 3.994762699999999944e-02 1.078806125700000074e+01
1.035910463099999923e+01 0.000000000000000000e+00 0.000000000000000000e+00 -5.304053699999999871e-02 1.038328195499999929e+01 0.000000000000000000e+00 -5.816278400000000209e-02 4.002949000000000090e-02 1.081016869299999961e+01
