4.574849999999999639e+00 3.039610000000000145e+00 2.891360000000000152e+00 3.729299999999999837e+00 3.057920000000000194e+00 8.092750000000000554e+00 4.895199999999999996e+00 8.413470000000000226e+00 2.577859999999999818e+00 3.813429999999999875e+00 8.354480000000000572e+00 7.837379999999999569e+00 -4.511800000000000255e-01 3.004509999999999792e+00 2.716660000000000075e+00 8.944179999999999353e+00 3.113869999999999916e+00 8.119239999999999569e+00 9.666449999999999321e+00 8.219039999999999679e+00 2.438250000000000028e+00 8.969789999999999708e+00 8.309979999999999478e+00 7.926350000000000229e+00 1.791959999999999997e+00 3.133900000000000019e-01 2.910070000000000157e+00 8.213000000000000300e-01 2.944399999999999795e-01 8.429660000000000153e+00 1.727440000000000087e+00 5.619819999999999816e+00 2.975239999999999885e+00 9.668799999999999617e-01 5.730360000000000120e+00 8.397629999999999484e+00 7.054570000000000007e+00 4.780800000000000050e-01 3.007449999999999957e+00 6.135060000000000180e+00 4.792699999999999738e-01 8.269119999999999138e+00 7.024610000000000021e+00 5.629640000000000200e+00 3.169369999999999798e+00 5.931759999999999700e+00 5.685089999999999755e+00 8.291529999999999845e+00 2.386449999999999960e+00 2.615069999999999784e+00 5.973100000000000076e-01 1.242140000000000022e+00 2.609570000000000167e+00 5.595720000000000027e+00 2.487270000000000092e+00 7.738310000000000244e+00 5.586299999999999599e-01 1.276739999999999986e+00 7.849669999999999703e+00 5.670040000000000191e+00 7.349929999999999630e+00 2.456970000000000098e+00 3.959099999999999842e-01 6.405619999999999870e+00 2.730729999999999880e+00 5.779729999999999812e+00 7.415130000000000443e+00 7.854400000000000048e+00 2.781899999999999928e-01 6.648279999999999745e+00 7.867919999999999803e+00 5.765799999999999592e+00 5.192569999999999908e+00 5.094269999999999854e+00 5.884000000000000341e-02 4.016969999999999708e+00 5.192639999999999922e+00 5.278059999999999974e+00 3.298449999999999882e+00 1.042939999999999934e+01 1.036285999999999952e+01 4.116109999999999935e+00 3.387800000000000256e-01 5.245160000000000267e+00 9.375999999999999612e-02 5.183220000000000383e+00 4.238999999999999713e-02 9.371280000000000499e+00 5.290799999999999947e+00 5.206089999999999662e+00 2.239999999999999804e-03 6.153000000000000136e-02 1.258499999999999897e-01 -8.208199999999999941e-01 1.035839999999999961e+01 5.297180000000000000e+00 3.461219999999999963e+00 4.463549999999999685e+00 3.589719999999999800e+00 2.748930000000000096e+00 4.572510000000000296e+00 8.831960000000000477e+00 3.371910000000000185e+00 9.776249999999999218e+00 3.605539999999999967e+00 2.479150000000000187e+00 9.713680000000000092e+00 8.696690000000000254e+00 8.800219999999999487e+00 4.643559999999999910e+00 3.332879999999999843e+00 7.517610000000000348e+00 4.276860000000000106e+00 8.768209999999999837e+00 8.608560000000000656e+00 9.693250000000000810e+00 3.277309999999999945e+00 7.948769999999999669e+00 9.989219999999999544e+00 8.256159999999999499e+00 3.073679999999999968e+00 1.862880000000000091e+00 2.340069999999999872e+00 1.800990000000000091e+00 1.916630000000000056e+00 7.486600000000000144e+00 3.043930000000000025e+00 7.231239999999999668e+00 2.390899999999999803e+00 2.026159999999999961e+00 7.306689999999999685e+00 7.542489999999999917e+00 8.229050000000000864e+00 1.972110000000000030e+00 2.204639999999999933e+00 7.088359999999999772e+00 2.060480000000000089e+00 7.812240000000000073e+00 8.045279999999999987e+00 7.261050000000000004e+00 2.276749999999999829e+00 7.404799999999999827e+00 7.223220000000000418e+00 7.629889999999999617e+00 2.654009999999999980e+00 1.467500000000000027e+00 4.738830000000000098e+00 1.558210000000000095e+00 1.203370000000000051e+00 1.019345999999999997e+01 2.688979999999999926e+00 6.716969999999999885e+00 4.843490000000000073e+00 1.770629999999999926e+00 6.188229999999999897e+00 1.035106000000000037e+01 7.747429999999999595e+00 1.242119999999999891e+00 5.032899999999999707e+00 6.779270000000000351e+00 8.589700000000000113e-01 1.033416000000000068e+01 7.751789999999999736e+00 6.372539999999999871e+00 4.879870000000000374e+00 6.896980000000000111e+00 6.309919999999999973e+00 1.015785999999999945e+01 3.869559999999999889e+00 3.789350000000000218e+00 7.485800000000000232e-01 2.922610000000000152e+00 3.922989999999999977e+00 6.342329999999999579e+00 4.142280000000000406e+00 8.858330000000000481e+00 7.318700000000000205e-01 3.041049999999999809e+00 9.276920000000000499e+00 6.136309999999999931e+00 9.229969999999999786e+00 3.764940000000000175e+00 7.659700000000000397e-01 8.074339999999999407e+00 4.048060000000000436e+00 6.098019999999999996e+00 9.195600000000000662e+00 8.936260000000000758e+00 4.765599999999999836e-01 8.328920000000000101e+00 8.848869999999999791e+00 5.863430000000000142e+00 1.277999999999999969e-01 1.407769999999999966e+00 4.108179999999999943e+00 -9.411800000000000166e-01 1.790869999999999962e+00 9.542180000000000106e+00 4.886999999999999678e-02 6.664049999999999585e+00 4.007039999999999935e+00 -5.487100000000000311e-01 6.605949999999999989e+00 9.492359999999999687e+00 5.471269999999999634e+00 1.597380000000000022e+00 4.015340000000000131e+00 4.542189999999999728e+00 1.626149999999999984e+00 9.385139999999999816e+00 5.469129999999999825e+00 6.745479999999999698e+00 4.033150000000000013e+00 4.557959999999999567e+00 6.722509999999999764e+00 9.334390000000000853e+00 1.445540000000000047e+00 4.162770000000000081e+00 1.701410000000000089e+00 1.421600000000000086e-01 4.184829999999999828e+00 7.022660000000000124e+00 1.294389999999999930e+00 9.363920000000000243e+00 1.547099999999999920e+00 2.950400000000000245e-01 9.291869999999999408e+00 6.929829999999999934e+00 6.238699999999999690e+00 3.950159999999999894e+00 1.772510000000000030e+00 5.312940000000000218e+00 4.235949999999999882e+00 6.991119999999999557e+00 9.176600000000000312e-01 4.063690000000000246e+00 4.218759999999999621e+00 -1.937599999999999878e-01 4.174859999999999793e+00 9.551019999999999399e+00 5.825200000000000378e-01 9.231260000000000687e+00 4.190439999999999721e+00 -2.418700000000000017e-01 9.365560000000000329e+00 9.540509999999999380e+00 5.751640000000000086e+00 4.215700000000000003e+00 4.453509999999999636e+00 5.190109999999999779e+00 4.186589999999999812e+00 9.753339999999999677e+00 6.047570000000000334e+00 9.356289999999999552e+00 3.964230000000000143e+00 5.029429999999999623e+00 9.418839999999999435e+00 9.566159999999999997e+00 8.045700000000000074e-01 1.524520000000000097e+00 1.485829999999999984e+00 -4.186699999999999866e-01 1.553549999999999986e+00 6.647219999999999906e+00 5.762199999999999545e-01 6.917060000000000208e+00 1.596279999999999921e+00 -2.561499999999999888e-01 6.594339999999999868e+00 6.799959999999999560e+00 5.732289999999999885e+00 1.247419999999999973e+00 1.269889999999999963e+00 4.752839999999999954e+00 1.509249999999999980e+00 6.860360000000000014e+00 5.939040000000000319e+00 6.775159999999999627e+00 1.346000000000000085e+00 4.864790000000000170e+00 6.799949999999999939e+00 6.756780000000000008e+00
4.853600000000000136e+00 3.004030000000000200e+00 2.614930000000000199e+00 3.943430000000000213e+00 3.030289999999999928e+00 7.802539999999999587e+00 4.620160000000000267e+00 8.287829999999999586e+00 2.678529999999999855e+00 3.892729999999999801e+00 8.193239999999999412e+00 7.856569999999999609e+00 9.749650000000000816e+00 2.955159999999999787e+00 2.661960000000000104e+00 8.882479999999999265e+00 3.023379999999999956e+00 7.825910000000000366e+00 -3.922900000000000276e-01 8.199389999999999290e+00 2.635740000000000194e+00 -1.277819999999999956e+00 8.348560000000000869e+00 7.838820000000000121e+00 1.825139999999999985e+00 4.357599999999999807e-01 3.031730000000000036e+00 8.405700000000000394e-01 5.704200000000000381e-01 8.304270000000000707e+00 1.703780000000000072e+00 5.519820000000000171e+00 3.142339999999999911e+00 9.619400000000000173e-01 5.668890000000000207e+00 8.345140000000000668e+00 6.953070000000000306e+00 4.807400000000000007e-01 3.146430000000000060e+00 5.974389999999999645e+00 4.605699999999999794e-01 8.367839999999999279e+00 6.934940000000000104e+00 5.616970000000000240e+00 3.103260000000000129e+00 6.035289999999999822e+00 5.703459999999999752e+00 8.221209999999999241e+00 2.136769999999999836e+00 2.594759999999999955e+00 3.743600000000000261e-01 1.435920000000000085e+00 2.599219999999999864e+00 5.662589999999999790e+00 2.174409999999999954e+00 7.777140000000000164e+00 5.302900000000000391e-01 1.355359999999999898e+00 7.867180000000000284e+00 5.790589999999999904e+00 7.231200000000000294e+00 2.626479999999999926e+00 3.495699999999999918e-01 6.414410000000000167e+00 2.698449999999999793e+00 5.756099999999999994e+00 7.339080000000000048e+00 7.722199999999999953e+00 3.247099999999999986e-01 6.491460000000000008e+00 7.817269999999999719e+00 5.701959999999999695e+00 5.011409999999999698e+00 5.194679999999999964e+00 4.478000000000000036e-02 4.229750000000000121e+00 5.216109999999999580e+00 5.247729999999999784e+00 3.337590000000000057e+00 1.037570000000000014e+01 1.046416999999999931e+01 4.244539999999999758e+00 3.533000000000000029e-02 5.300639999999999574e+00 -1.243999999999999967e-02 5.153100000000000236e+00 7.785999999999999865e-02 -8.944900000000000073e-01 5.291660000000000252e+00 5.303910000000000124e+00 8.402549999999999741e+00 1.041769999999999996e+01 1.045237000000000016e+01 -8.408600000000000518e-01 1.035130999999999979e+01 5.229230000000000267e+00 3.444939999999999891e+00 4.715729999999999755e+00 3.319859999999999811e+00 2.688530000000000086e+00 4.529770000000000074e+00 8.508950000000000458e+00 3.658949999999999925e+00 9.853669999999999263e+00 3.208829999999999849e+00 2.636150000000000215e+00 9.834709999999999397e+00 8.593270000000000408e+00 8.572889999999999233e+00 4.388799999999999812e+00 3.427360000000000184e+00 7.686219999999999608e+00 4.455330000000000013e+00 8.629789999999999850e+00 8.532239999999999824e+00 9.620620000000000616e+00 3.398029999999999884e+00 7.544509999999999827e+00 9.642260000000000275e+00 8.689539999999999154e+00 2.931719999999999882e+00 1.885899999999999910e+00 2.184619999999999784e+00 2.260320000000000107e+00 1.775609999999999911e+00 7.375440000000000218e+00 2.891020000000000145e+00 7.271480000000000388e+00 2.285699999999999843e+00 2.153649999999999842e+00 7.112289999999999779e+00 7.557310000000000194e+00 8.105449999999999378e+00 1.919980000000000020e+00 2.490279999999999827e+00 7.180550000000000210e+00 1.965260000000000007e+00 7.609379999999999811e+00 2.607429999999999914e+00 1.161969999999999947e+00 4.860660000000000203e+00 1.799239999999999950e+00 1.311339999999999950e+00 9.954290000000000305e+00 2.545780000000000154e+00 6.358480000000000132e+00 4.931309999999999860e+00 1.863750000000000018e+00 6.495359999999999800e+00 1.012941999999999965e+01 7.722789999999999822e+00 9.793699999999999628e-01 4.996590000000000309e+00 6.776430000000000398e+00 1.137760000000000105e+00 1.018671999999999933e+01 7.635740000000000194e+00 6.394059999999999633e+00 5.061709999999999710e+00 6.894149999999999778e+00 6.510460000000000136e+00 1.004021999999999970e+01 3.795889999999999986e+00 3.830970000000000208e+00 8.813400000000000123e-01 3.002559999999999896e+00 3.835850000000000204e+00 5.966520000000000046e+00 3.693810000000000038e+00 9.128750000000000142e+00 6.952899999999999636e-01 3.081859999999999822e+00 8.937170000000000059e+00 5.983319999999999972e+00 8.991179999999999950e+00 3.603229999999999933e+00 8.027499999999999636e-01 7.982350000000000279e+00 3.945320000000000160e+00 6.132550000000000168e+00 8.995010000000000616e+00 8.924509999999999721e+00 8.869099999999999762e-01 8.128500000000000725e+00 8.896549999999999514e+00 5.938790000000000013e+00 3.315799999999999859e-01 1.459729999999999972e+00 4.082449999999999690e+00 -6.951199999999999601e-01 1.674590000000000023e+00 9.352700000000000458e+00 6.081999999999999906e-02 6.824840000000000018e+00 4.103240000000000443e+00 -7.202899999999999858e-01 6.784699999999999953e+00 9.373229999999999507e+00 5.367499999999999716e+00 1.498850000000000016e+00 4.182210000000000427e+00 4.437730000000000175e+00 1.510250000000000092e+00 9.252560000000000784e+00 5.320269999999999833e+00 6.756610000000000227e+00 4.170340000000000380e+00 4.457049999999999734e+00 6.774770000000000181e+00 9.324749999999999872e+00 1.076170000000000071e+00 4.152440000000000353e+00 1.726580000000000004e+00 2.897299999999999875e-01 4.331140000000000434e+00 6.847369999999999735e+00 9.442899999999999627e-01 9.366110000000000824e+00 1.547690000000000010e+00 3.691699999999999982e-01 9.506280000000000285e+00 6.776539999999999786e+00 6.233109999999999928e+00 4.032490000000000130e+00 1.615169999999999995e+00 5.428180000000000227e+00 4.121179999999999843e+00 6.778550000000000075e+00 6.209349999999999703e+00 9.201950000000000074e+00 1.477440000000000087e+00 5.339409999999999989e+00 9.327619999999999578e+00 6.918449999999999989e+00 6.131900000000000128e-01 3.951760000000000161e+00 4.304210000000000313e+00 -1.470200000000000118e-01 4.040560000000000151e+00 9.478600000000000136e+00 8.060699999999999532e-01 9.192159999999999442e+00 4.145109999999999850e+00 -2.887199999999999767e-01 9.452070000000000860e+00 9.399940000000000850e+00 5.826030000000000264e+00 4.030179999999999652e+00 4.107759999999999856e+00 4.954959999999999809e+00 4.074709999999999610e+00 9.509240000000000137e+00 5.770730000000000359e+00 9.305389999999999162e+00 4.342819999999999681e+00 4.890740000000000087e+00 9.237830000000000652e+00 9.445029999999999148e+00 5.437100000000000266e-01 1.410730000000000040e+00 1.417710000000000026e+00 -2.785799999999999943e-01 1.741910000000000069e+00 6.564569999999999794e+00 6.252100000000000435e-01 6.606609999999999872e+00 1.502199999999999980e+00 -2.389600000000000057e-01 6.803230000000000111e+00 6.737239999999999895e+00 5.750980000000000203e+00 1.411569999999999991e+00 1.408719999999999972e+00 4.920819999999999972e+00 1.449559999999999960e+00 6.639059999999999739e+00 5.850130000000000052e+00 6.512349999999999639e+00 1.511470000000000091e+00 4.868909999999999627e+00 6.696729999999999627e+00 6.720010000000000261e+00
4.754030000000000200e+00 3.025819999999999954e+00 2.645560000000000134e+00 3.772590000000000110e+00 3.086619999999999919e+00 7.971309999999999896e+00 4.649420000000000108e+00 8.292400000000000659e+00 2.708110000000000017e+00 3.805619999999999781e+00 8.205069999999999197e+00 8.128450000000000841e+00 9.814040000000000319e+00 3.089939999999999909e+00 2.617399999999999949e+00 8.892569999999999197e+00 3.003839999999999844e+00 7.909489999999999910e+00 9.766389999999999461e+00 8.430009999999999337e+00 2.581850000000000200e+00 8.916090000000000515e+00 8.385020000000000806e+00 7.668800000000000061e+00 1.773309999999999942e+00 5.035600000000000076e-01 2.930579999999999963e+00 9.399199999999999777e-01 4.492200000000000082e-01 8.401790000000000092e+00 1.688630000000000075e+00 5.804299999999999571e+00 3.067919999999999980e+00 8.888200000000000545e-01 5.700689999999999813e+00 8.325680000000000192e+00 6.999469999999999636e+00 2.864399999999999724e-01 3.097119999999999873e+00 5.917360000000000397e+00 4.146299999999999986e-01 8.303729999999999833e+00 6.876640000000000086e+00 5.569370000000000154e+00 2.961549999999999905e+00 6.116679999999999673e+00 5.602070000000000327e+00 8.433479999999999421e+00 2.248499999999999943e+00 2.661309999999999842e+00 3.972200000000000175e-01 1.424909999999999899e+00 2.673099999999999810e+00 5.794330000000000425e+00 2.327550000000000008e+00 7.804809999999999803e+00 3.423599999999999977e-01 1.341860000000000053e+00 7.900380000000000180e+00 5.705680000000000085e+00 7.250270000000000437e+00 2.496340000000000003e+00 4.246300000000000074e-01 6.503350000000000186e+00 2.625999999999999890e+00 5.726079999999999615e+00 7.465239999999999654e+00 7.786069999999999602e+00 4.709200000000000053e-01 6.450990000000000002e+00 7.800510000000000055e+00 5.710539999999999949e+00 5.203960000000000363e+00 5.234659999999999869e+00 1.054999999999999966e-01 4.152580000000000382e+00 5.242200000000000415e+00 5.238260000000000360e+00 5.258969999999999700e+00 1.026130000000000031e+01 7.634000000000000508e-02 4.328380000000000116e+00 1.029400000000000048e+01 5.250320000000000320e+00 -1.757849999999999913e+00 5.338359999999999772e+00 1.051731000000000016e+01 9.370760000000000645e+00 5.261120000000000019e+00 5.235249999999999737e+00 -1.783169999999999922e+00 1.042360000000000042e+01 1.048235999999999990e+01 9.412689999999999557e+00 1.128099999999999936e-01 5.143460000000000143e+00 3.424380000000000202e+00 4.471199999999999619e+00 3.293800000000000061e+00 2.748689999999999856e+00 4.679090000000000416e+00 8.527150000000000674e+00 3.530790000000000095e+00 9.830830000000000624e+00 3.228940000000000143e+00 2.776769999999999960e+00 9.906380000000000408e+00 8.614359999999999573e+00 8.744949999999999335e+00 4.607540000000000191e+00 3.465939999999999799e+00 7.817309999999999981e+00 4.659480000000000288e+00 8.604789999999999495e+00 8.676429999999999865e+00 9.816900000000000404e+00 3.352749999999999897e+00 7.681219999999999715e+00 9.661310000000000286e+00 8.577650000000000219e+00 3.030019999999999936e+00 1.975079999999999947e+00 2.422880000000000145e+00 2.071959999999999802e+00 2.037830000000000030e+00 7.751450000000000173e+00 2.976579999999999782e+00 7.181320000000000370e+00 2.309550000000000214e+00 2.174339999999999939e+00 7.193469999999999587e+00 7.763460000000000250e+00 8.023479999999999279e+00 1.956849999999999978e+00 2.365720000000000045e+00 7.262380000000000280e+00 1.764860000000000095e+00 7.656450000000000422e+00 8.186220000000000496e+00 7.080210000000000115e+00 2.423649999999999860e+00 7.232619999999999827e+00 7.115840000000000387e+00 7.479499999999999815e+00 2.498019999999999907e+00 1.085229999999999917e+00 4.868210000000000370e+00 3.391099999999999781e+00 1.006440000000000001e+00 9.248000000000000664e-02 2.370490000000000208e+00 6.190150000000000041e+00 4.946860000000000035e+00 1.426020000000000065e+00 6.252270000000000216e+00 1.030596000000000068e+01 7.676370000000000360e+00 1.191850000000000076e+00 5.035000000000000142e+00 6.798180000000000334e+00 1.070310000000000095e+00 1.016876000000000069e+01 7.468919999999999781e+00 6.123639999999999972e+00 5.149090000000000167e+00 6.657619999999999649e+00 6.141289999999999694e+00 1.041676000000000002e+01 4.064119999999999955e+00 3.568869999999999987e+00 6.849600000000000133e-01 3.056839999999999780e+00 3.858260000000000023e+00 5.985520000000000174e+00 4.135860000000000092e+00 8.623810000000000642e+00 6.538100000000000023e-01 3.162529999999999841e+00 8.795889999999999986e+00 6.109530000000000349e+00 9.087790000000000035e+00 3.714890000000000025e+00 8.391199999999999770e-01 8.193350000000000577e+00 3.617179999999999840e+00 5.937170000000000059e+00 8.931240000000000734e+00 8.975080000000000169e+00 8.547000000000000153e-01 8.228389999999999205e+00 8.888859999999999317e+00 5.846969999999999779e+00 1.034800000000000025e-01 1.535800000000000054e+00 3.984719999999999818e+00 -7.088400000000000256e-01 1.499800000000000022e+00 9.352029999999999177e+00 -2.802999999999999936e-02 6.864220000000000432e+00 4.173390000000000377e+00 -7.197400000000000464e-01 6.914170000000000371e+00 9.381099999999999994e+00 5.505539999999999878e+00 1.378460000000000019e+00 3.966509999999999980e+00 4.339540000000000397e+00 1.619220000000000104e+00 9.364969999999999573e+00 5.282840000000000202e+00 6.752589999999999648e+00 4.067120000000000068e+00 4.542629999999999946e+00 6.762570000000000192e+00 9.605209999999999582e+00 1.184309999999999974e+00 4.380589999999999762e+00 1.640609999999999902e+00 1.931599999999999984e-01 4.231939999999999813e+00 7.022879999999999789e+00 1.053490000000000038e+00 9.499959999999999738e+00 1.721139999999999892e+00 2.638300000000000090e-01 9.437419999999999476e+00 7.078850000000000087e+00 6.343429999999999680e+00 4.085720000000000240e+00 1.637210000000000054e+00 5.387669999999999959e+00 4.033979999999999677e+00 7.194480000000000430e+00 7.096099999999999630e-01 4.083910000000000373e+00 4.257819999999999716e+00 -2.690899999999999959e-01 4.049669999999999881e+00 9.469760000000000844e+00 5.067800000000000082e-01 9.373590000000000089e+00 4.387360000000000149e+00 1.043000000000000003e-02 9.406660000000000466e+00 9.809369999999999479e+00 5.893369999999999997e+00 4.094820000000000348e+00 4.414489999999999803e+00 5.119769999999999932e+00 4.105459999999999887e+00 9.840600000000000236e+00 5.959480000000000111e+00 9.363640000000000185e+00 4.312359999999999971e+00 5.068080000000000140e+00 9.256199999999999761e+00 9.543509999999999494e+00 5.132200000000000095e-01 1.566950000000000065e+00 1.471870000000000012e+00 -2.117600000000000038e-01 1.515439999999999898e+00 6.744760000000000311e+00 6.629199999999999537e-01 6.914760000000000240e+00 1.557339999999999947e+00 -1.094699999999999979e-01 6.751019999999999577e+00 6.704329999999999679e+00 5.822390000000000398e+00 1.246450000000000058e+00 1.530030000000000001e+00 4.759129999999999860e+00 1.413429999999999964e+00 6.683200000000000252e+00 5.716940000000000133e+00 6.731489999999999974e+00 1.413890000000000091e+00 4.792370000000000019e+00 6.569209999999999994e+00 6.781690000000000218e+00
4.617759999999999643e+00 3.065669999999999895e+00 2.568290000000000184e+00 3.734360000000000124e+00 3.080119999999999969e+00 8.209559999999999746e+00 4.685340000000000060e+00 8.310800000000000409e+00 2.710859999999999825e+00 3.865670000000000162e+00 8.360630000000000450e+00 7.846260000000000012e+00 -3.881100000000000105e-01 3.083439999999999959e+00 2.550120000000000164e+00 -1.325819999999999999e+00 3.164379999999999971e+00 7.881920000000000037e+00 9.860760000000000858e+00 8.231559999999999988e+00 2.569240000000000190e+00 -1.357679999999999998e+00 8.260979999999999990e+00 8.027210000000000178e+00 1.888900000000000023e+00 3.455199999999999938e-01 3.038370000000000015e+00 9.521699999999999608e-01 2.883399999999999852e-01 8.337360000000000326e+00 1.906919999999999948e+00 5.710119999999999862e+00 3.222869999999999902e+00 9.357900000000000107e-01 5.803799999999999848e+00 8.313190000000000524e+00 6.885650000000000048e+00 3.886999999999999900e-01 3.206010000000000026e+00 6.187719999999999665e+00 6.176300000000000123e-01 8.267070000000000363e+00 6.761169999999999902e+00 5.608069999999999666e+00 2.999730000000000008e+00 6.057750000000000412e+00 5.648329999999999629e+00 8.228109999999999147e+00 2.244969999999999910e+00 2.600769999999999804e+00 3.018799999999999817e-01 1.335069999999999979e+00 2.521920000000000162e+00 5.620009999999999728e+00 2.343609999999999971e+00 7.887290000000000134e+00 5.159899999999999487e-01 1.233170000000000099e+00 7.876710000000000100e+00 5.791350000000000442e+00 7.502349999999999852e+00 2.430829999999999824e+00 6.440099999999999714e-01 6.516600000000000392e+00 2.591860000000000053e+00 5.615549999999999820e+00 7.384059999999999846e+00 7.820929999999999715e+00 3.596199999999999952e-01 6.525400000000000311e+00 7.800089999999999968e+00 5.640489999999999782e+00 4.987820000000000142e+00 5.236609999999999765e+00 2.125000000000000153e-02 4.120739999999999625e+00 5.201609999999999623e+00 5.401110000000000078e+00 3.346799999999999997e+00 1.300999999999999934e-01 1.047918999999999912e+01 4.147160000000000402e+00 1.326100000000000056e-01 5.268159999999999954e+00 1.013419000000000025e+01 5.090160000000000018e+00 1.039199999999999985e-01 -8.342899999999999761e-01 5.119620000000000282e+00 5.242270000000000429e+00 8.523600000000000065e+00 1.043737999999999921e+01 1.049389000000000038e+01 9.319649999999999324e+00 1.039178000000000068e+01 5.219249999999999723e+00 3.589789999999999814e+00 4.565979999999999706e+00 3.269470000000000098e+00 2.728839999999999932e+00 4.870059999999999611e+00 8.655799999999999272e+00 3.493030000000000079e+00 9.726000000000000867e+00 3.499439999999999884e+00 2.695530000000000204e+00 9.963549999999999685e+00 8.428190000000000737e+00 8.712619999999999365e+00 4.223569999999999602e+00 3.443709999999999827e+00 7.704720000000000013e+00 4.647840000000000416e+00 8.687219999999999942e+00 8.485400000000000276e+00 9.588329999999999131e+00 3.362899999999999778e+00 7.764160000000000394e+00 9.853719999999999146e+00 8.759600000000000719e+00 3.205950000000000077e+00 1.679540000000000033e+00 2.084729999999999972e+00 1.958090000000000108e+00 2.135810000000000208e+00 7.822869999999999990e+00 2.990419999999999856e+00 7.183559999999999945e+00 2.326550000000000118e+00 2.090430000000000010e+00 7.417970000000000397e+00 7.712690000000000268e+00 8.250120000000000786e+00 1.680940000000000101e+00 2.400279999999999969e+00 7.319090000000000096e+00 1.896810000000000107e+00 7.434090000000000309e+00 7.970650000000000013e+00 7.132850000000000357e+00 2.433139999999999858e+00 6.949950000000000294e+00 7.365579999999999572e+00 7.770870000000000388e+00 2.861260000000000137e+00 1.545760000000000023e+00 4.788509999999999600e+00 1.695789999999999909e+00 1.119950000000000001e+00 1.018648999999999916e+01 2.555169999999999941e+00 6.285720000000000418e+00 4.998280000000000278e+00 1.635089999999999932e+00 6.285350000000000215e+00 1.027579000000000065e+01 7.759159999999999613e+00 1.221540000000000070e+00 4.984899999999999665e+00 7.000090000000000146e+00 1.270990000000000064e+00 1.027679000000000009e+01 7.697669999999999568e+00 6.424760000000000026e+00 4.939709999999999823e+00 6.652490000000000236e+00 6.215919999999999668e+00 1.036489000000000082e+01 4.091269999999999740e+00 3.574749999999999872e+00 6.952300000000000146e-01 2.987919999999999909e+00 3.821499999999999897e+00 6.003470000000000084e+00 3.970330000000000137e+00 8.975179999999999936e+00 7.905799999999999494e-01 3.077900000000000080e+00 9.017300000000000537e+00 6.002550000000000274e+00 9.016740000000000421e+00 3.688550000000000217e+00 6.969899999999999984e-01 8.155020000000000380e+00 3.849029999999999951e+00 6.264630000000000365e+00 9.097160000000000579e+00 8.884399999999999409e+00 8.364599999999999813e-01 8.155060000000000642e+00 8.895089999999999719e+00 5.994629999999999903e+00 2.941400000000000126e-01 1.627529999999999921e+00 4.019750000000000156e+00 -7.087200000000000166e-01 1.593839999999999923e+00 9.313969999999999416e+00 3.664799999999999724e-01 6.780359999999999943e+00 4.125020000000000131e+00 -7.748300000000000187e-01 6.749740000000000073e+00 9.162530000000000285e+00 5.484289999999999665e+00 1.591320000000000068e+00 3.887030000000000207e+00 4.535050000000000026e+00 1.574699999999999989e+00 9.410529999999999617e+00 5.200829999999999842e+00 6.724649999999999572e+00 3.822140000000000093e+00 4.564429999999999765e+00 6.904259999999999842e+00 9.049409999999999954e+00 1.064780000000000060e+00 4.160989999999999966e+00 1.598230000000000040e+00 3.638899999999999912e-01 4.290510000000000268e+00 6.918070000000000164e+00 1.507309999999999928e+00 9.458259999999999224e+00 1.668900000000000050e+00 2.467799999999999994e-01 9.313679999999999737e+00 7.048099999999999810e+00 6.493000000000000327e+00 4.018729999999999691e+00 1.847920000000000007e+00 5.300200000000000244e+00 4.166579999999999728e+00 6.960530000000000328e+00 8.463899999999999757e-01 4.202169999999999739e+00 4.174520000000000231e+00 -3.448899999999999744e-01 4.131689999999999863e+00 9.788669999999999760e+00 6.631899999999999462e-01 9.405379999999999185e+00 4.542699999999999960e+00 -1.978399999999999881e-01 9.469170000000000087e+00 9.606809999999999405e+00 5.888690000000000424e+00 4.054339999999999833e+00 4.337979999999999947e+00 4.798960000000000115e+00 4.141530000000000378e+00 9.752459999999999241e+00 5.789060000000000095e+00 9.341110000000000468e+00 4.481700000000000017e+00 5.107059999999999711e+00 9.533409999999999940e+00 9.874280000000000612e+00 7.447399999999999576e-01 1.587380000000000013e+00 1.245589999999999975e+00 -1.940399999999999903e-01 1.352640000000000065e+00 6.603810000000000180e+00 6.835999999999999854e-01 6.901169999999999582e+00 1.318429999999999991e+00 -2.942500000000000115e-01 6.622709999999999653e+00 6.732300000000000395e+00 5.853469999999999729e+00 1.380840000000000067e+00 1.481589999999999963e+00 4.803189999999999849e+00 1.668609999999999927e+00 6.749489999999999768e+00 5.883820000000000050e+00 6.640799999999999592e+00 1.270119999999999916e+00 4.833569999999999922e+00 6.912950000000000372e+00 6.514599999999999724e+00