1.737838999999999912e+00 1.922935000000000061e+00 -2.294380000000000031e-01 -1.000158000000000103e+00 1.418766999999999889e+00 4.038499999999999868e-01 2.258633999999999808e+00 -1.964229999999999920e+00 -4.502550000000000163e-01 1.160700000000000065e-01 -3.212619999999999920e-01 6.499489999999999990e-01 1.135939999999999950e+00 -5.294780000000000042e-01 -4.526080000000000103e-01 -5.740349999999999620e-01 -1.222183000000000019e+00 -8.449440000000000284e-01 -3.071617999999999959e+00 -2.302619999999999945e-01 -3.518009999999999859e+00 -2.244569999999999899e-01 8.440330000000000332e-01 2.124534999999999840e+00 -1.131509000000000098e+00 -1.953659999999999952e+00 -1.616799999999999904e-01 -1.939980000000000038e+00 -3.615895000000000081e+00 3.018251999999999935e+00 -2.492607000000000017e+00 1.610035000000000105e+00 -9.175999999999999712e-01 2.555286999999999864e+00 -1.809044000000000096e+00 -2.832106000000000012e+00 9.541900000000000381e-02 9.362040000000000362e-01 1.744399999999999951e+00 8.712879999999999514e-01 1.903758999999999979e+00 1.828894999999999937e+00 -1.167915999999999954e+00 -1.037906999999999913e+00 -7.907399999999999984e-01 -2.114237000000000144e+00 4.260569000000000273e+00 2.948453999999999908e+00 -2.455693000000000126e+00 -6.303419999999999579e-01 -3.343740000000000046e-01 -8.959999999999999866e-04 -1.616398000000000001e+00 -4.628860000000000197e-01 1.586276000000000019e+00 -6.802690000000000126e-01 -6.485410000000000341e-01 -4.232879999999999754e+00 8.063238000000000127e+00 -1.771284000000000081e+00 6.322000000000000362e-03 2.136343999999999799e+00 -1.978399999999999950e-02 -1.862700000000000022e+00 -5.493109999999999937e-01 3.668400000000000133e-02 -1.808418000000000081e+00 1.049680000000000057e-01 -2.663100000000000023e+00 -2.717562000000000033e+00 -1.939082999999999890e+00 -5.377680000000000238e-01 1.280164000000000080e+00 -1.331555999999999962e+00 4.807319999999999927e-01 9.476400000000000101e-02 -2.365049999999999930e-01 -7.677389999999999493e-01 4.892759999999999887e-01 3.135651000000000188e+00 2.511328999999999922e+00 2.334306999999999910e+00 -8.791170000000000373e-01 -3.216410000000000102e-01 2.070480000000000098e-01 -3.108940000000000037e-01 -1.809287000000000090e+00 2.466556000000000193e+00 -2.293212000000000028e+00 1.550624000000000002e+00 -9.205790000000000362e-01 -3.130787999999999904e+00 9.581619999999999582e-01 -2.765371000000000024e+00 -2.753789999999999960e+00 2.860202999999999829e+00 9.086530000000000440e-01 2.256330000000000002e-01 -3.993160000000000043e-01 1.141119999999999912e+00 -1.033843999999999985e+00 -5.054779999999999829e-01 -1.654779999999999918e+00 -1.333536999999999972e+00 5.446520000000000250e-01 3.652989999999999848e-01 1.531943999999999972e+00 5.076070000000000304e-01 6.479749999999999677e-01 8.101239999999999553e-01 -9.197560000000000180e-01 -1.051717000000000013e+00 4.611060000000000159e-01 2.505800000000000249e-01 1.934800000000000061e-02 2.761788000000000132e+00 -7.241649999999999476e-01 1.120389999999999997e-01 -5.271869999999999612e-01 -5.445659999999999945e-01 1.496501000000000081e+00 1.679080000000000017e-01 1.017926000000000109e+00 -3.835950000000000193e-01 -1.413184999999999913e+00 1.045639999999999903e+00 4.692049999999999832e-01 6.086209999999999676e-01 -4.091549999999999909e-01 1.924728999999999912e+00 4.201520000000000254e-01 -8.181920000000000304e-01 -1.090486999999999984e+00 -2.232091000000000047e+00 -5.678630000000000067e-01 8.240370000000000195e-01 1.325629999999999864e-01 1.098799999999999950e-02 1.563001000000000085e+00 2.058139999999999858e+00 -1.706699999999999884e-01 5.507370000000000321e-01 1.035439999999999972e-01 -2.084199999999999942e-02 4.813660000000000161e-01 7.423200000000000631e-02 1.117212000000000094e+00 -1.909283999999999981e+00 -7.981999999999999512e-03 -8.368839999999999613e-01 -1.476320000000000132e-01 -1.527454000000000089e+00 1.942396000000000011e+00 7.771699999999999442e-02 1.603100000000000080e-01 -1.718771000000000049e+00 2.518756000000000217e+00 7.562039999999999873e-01 -1.506547999999999998e+00 8.935800000000000687e-02 8.221500000000000474e-01 -8.284500000000000197e-02 2.152886000000000077e+00 4.133760000000000212e-01 1.706272000000000011e+00 -5.745039000000000229e+00 -3.145415999999999990e+00 -2.704477999999999938e+00 -1.329463999999999979e+00 6.002400000000000097e-02 -8.561830000000000274e-01 4.402159999999999962e-01 -1.323040999999999912e+00 5.468640000000000168e-01 -2.299160999999999788e+00 2.389130999999999894e+00 2.082500000000000018e+00 1.220229999999999926e+00 9.670260000000000522e-01 -2.612775000000000070e+00 -1.065561999999999898e+00 -1.785120000000000040e-01 1.248670000000000058e-01 3.183889999999999776e-01 1.202169000000000043e+00 2.251780999999999811e+00 -2.352199000000000151e+00 2.983739999999999726e-01 -1.636557999999999957e+00 1.746291999999999955e+00 -1.347780999999999896e+00 1.182169999999999943e+00 -5.002419999999999645e-01 8.487670000000000492e-01 1.390908999999999951e+00 -3.223759999999999959e-01 3.080089999999999772e-01 3.055869999999999975e-01 -3.400549999999999962e-01 -1.333933000000000035e+00 -9.555960000000000010e-01 5.600217999999999918e+00 -3.480942999999999898e+00 3.977994999999999948e+00 -5.993509999999999671e-01 7.294599999999999973e-01 -1.025344000000000033e+00 -6.547560000000000047e-01 -1.918126999999999915e+00 -1.227573000000000025e+00 -1.418247000000000035e+00 1.999670000000000059e-01 1.351874000000000020e+00 1.006199999999999983e+00 2.914160000000000084e-01 2.217585000000000139e+00 -6.390200000000000324e-01 -4.954810000000000048e-01 2.769115000000000215e+00 -1.069973999999999981e+00 2.705769999999999786e+00 -2.233995000000000175e+00 2.330046999999999979e+00 -2.102767000000000053e+00 3.090780000000000194e-01 8.327329999999999455e-01 -2.135832999999999871e+00 -1.425648000000000026e+00 3.796107000000000120e+00 -2.880351999999999801e+00 -1.753956999999999988e+00 1.211602999999999986e+00 1.727497000000000060e+00 -2.963497999999999966e+00 6.985829999999999540e-01 2.120710000000000095e-01 -1.414501999999999926e+00 2.330206000000000000e+00 3.522374000000000116e+00 -4.539024999999999643e+00 -8.808329999999999771e-01 2.353029999999999955e+00 -1.142721000000000098e+00 -3.088350000000000262e-01 9.074750000000000316e-01 4.231030000000000069e-01 9.609680000000000444e-01 3.450449999999999906e-01 1.489409999999999901e+00 -6.688629999999999853e-01 -8.897450000000000081e-01 -4.585699999999999776e-01 -9.093769999999999909e-01 1.686207000000000011e+00 -1.757110000000000061e-01 -4.913129999999999997e-01 4.238870000000000138e-01 1.115313999999999917e+00 -1.247602000000000100e+00 -2.877029999999999976e+00 -2.526200000000000112e-01 1.364398000000000000e+00 2.939269999999999938e-01 4.299794000000000338e+00 1.045766999999999891e+00 1.257702000000000098e+00 -8.469339999999999646e-01 -1.509919999999999873e-01 -4.576089999999999880e-01 1.954260000000000108e+00 5.788069999999999604e-01 -5.655510000000000259e-01 1.416905999999999999e+00 1.237676999999999916e+00 3.383532999999999902e+00 -3.595356000000000218e+00 1.038327000000000000e+00 9.039540000000000353e-01 -2.703599999999999892e-01 -6.233180000000000387e-01 -2.618526999999999827e+00 2.381785999999999959e+00
-6.990499999999999492e-02 4.810762000000000427e+00 -2.226949999999999985e+00 -5.330100000000000116e-02 3.565249999999999808e-01 1.661087999999999898e+00 -2.226300999999999863e+00 -1.663774000000000086e+00 1.856994999999999951e+00 4.632080000000000086e-01 1.465975000000000028e+00 -1.860020999999999924e+00 4.027861999999999831e+00 1.163572999999999968e+00 -1.117749999999999994e-01 -3.015020999999999951e+00 -3.762010000000000076e-01 -4.167658000000000307e+00 4.637709000000000081e+00 8.722379999999999578e-01 2.115737999999999897e+00 -2.369152999999999842e+00 -6.021665999999999741e+00 -2.468386999999999887e+00 3.147857000000000127e+00 3.619295000000000151e+00 -1.059234999999999927e+00 -7.209814999999999863e+00 -6.513759999999999550e-01 -2.507827999999999946e+00 1.195627999999999913e+00 -3.913499999999999979e+00 1.007449999999999957e+00 -9.803380000000000427e-01 -1.214129999999999932e+00 1.349761999999999906e+00 -2.531750999999999863e+00 3.331437000000000204e+00 -6.929359999999999964e-01 -2.891239999999999921e-01 7.342940000000000023e-01 -9.548200000000000021e-01 6.303325000000000067e+00 -4.333998000000000239e+00 -7.736570000000000391e-01 -2.239041999999999977e+00 3.053870000000000196e-01 1.635551999999999895e+00 -5.457170000000000076e-01 -2.797883000000000120e+00 9.298380000000000534e-01 3.407134000000000107e+00 -2.001189999999999802e+00 2.485709999999999864e-01 2.891551999999999900e+00 5.434300000000000241e-02 -4.289870000000000072e-01 -6.472360000000000335e-01 7.582400000000000251e-02 -1.256599999999999939e-01 -8.165040000000000076e-01 3.396180999999999894e+00 2.043419999999999792e+00 3.040734000000000048e+00 -4.799320000000000253e-01 1.516909000000000063e+00 -3.806109999999999882e+00 1.255908000000000024e+00 1.966941000000000050e+00 -1.042160999999999893e+00 1.055159999999999987e-01 -4.550252000000000407e+00 1.111366999999999994e+00 -1.134773000000000032e+00 -2.608308000000000071e+00 1.550210000000000088e+00 1.509399999999999978e-02 1.301015000000000033e+00 3.282526999999999973e+00 3.478229999999999933e-01 2.695499999999999979e-02 -5.572945999999999955e+00 3.709607000000000099e+00 -4.223228999999999900e+00 -1.475872999999999990e+00 -3.118330000000000268e-01 1.049393999999999938e+00 1.250189999999999912e+00 1.924599999999999922e-02 -5.167000000000000481e-01 -2.082635999999999932e+00 -5.825380000000000003e-01 -2.906999999999999862e-03 -4.414699999999999847e+00 2.287167000000000172e+00 -3.010000999999999927e+00 2.263290000000000024e-01 -3.833449999999999913e-01 1.209009000000000000e+00 -5.050229999999999997e-01 -3.357107000000000063e+00 4.087459999999999982e-01 1.387243000000000004e+00 1.089105999999999908e+00 3.004560000000000008e-01 -1.266801999999999984e+00 1.360373000000000054e+00 -2.323911999999999978e+00 -2.067199999999999940e-02 4.609779999999999989e-01 -8.568620000000000125e-01 -5.518589000000000411e+00 1.661207000000000100e+00 5.812533000000000172e+00 -1.982526999999999928e+00 -3.173868000000000134e+00 -5.771030000000000326e-01 -2.819500000000000117e+00 -3.308670000000000222e-01 3.853469999999999951e-01 -3.842799999999999688e-02 7.600649999999999906e-01 -1.007154000000000105e+00 2.445418000000000092e+00 -1.500434000000000045e+00 7.230499999999999428e-02 -2.946579999999999755e-01 -2.849599999999999911e-01 1.506607999999999947e+00 1.809933999999999932e+00 -1.692733000000000043e+00 2.298060000000000103e-01 2.089561999999999919e+00 -2.720819999999999794e+00 1.658023999999999942e+00 4.386625999999999692e+00 1.777562000000000086e+00 3.568026000000000142e+00 7.714140000000000441e-01 6.357399999999999718e-01 2.172849999999999948e+00 -1.755492000000000052e+00 4.146130000000000093e-01 -2.511979999999999769e-01 -1.689532999999999952e+00 -2.614635999999999960e+00 -2.231319999999999970e-01 2.332510000000000083e+00 -4.766630000000000034e-01 -2.394255999999999940e+00 -1.248558999999999974e+00 1.167469000000000090e+00 -2.450420999999999960e+00 5.275910000000000322e-01 1.628074000000000021e+00 1.535055999999999976e+00 3.793464000000000169e+00 -1.195756999999999959e+00 -7.362999999999999753e-03 5.576309999999999878e-01 -1.053792999999999980e+00 -2.176546000000000092e+00 -5.129059999999999730e-01 1.142363999999999935e+00 1.867299999999999960e+00 -1.074151999999999996e+00 4.476049999999999751e-01 1.440179000000000098e+00 -1.284548000000000023e+00 6.009970000000000034e-01 1.673199999999999965e-01 -3.518930000000000113e-01 -1.304960000000000009e-01 -1.714380000000000015e+00 2.467798999999999854e+00 -1.900681999999999983e+00 6.970750000000000002e-01 1.319909999999999972e-01 1.714968000000000048e+00 1.474105999999999916e+00 -1.562310000000000088e+00 1.898633999999999933e+00 -1.689373999999999931e+00 -2.740521000000000207e+00 -5.137540000000000440e-01 3.178841999999999945e+00 1.284629999999999939e+00 -8.687859999999999472e-01 -2.145400000000000085e-01 -4.795900000000000163e-02 -7.635709999999999997e-01 -1.974445999999999923e+00 -5.389779999999999571e-01 1.068920000000000092e+00 1.030761999999999956e+00 -6.139099999999999557e-01 -6.292269999999999808e-01 1.425000000000000051e-02 -1.687379999999999991e-01 -6.584500000000000075e-02 -2.469052000000000024e+00 -4.874029999999999752e-01 1.968026999999999971e+00 -1.663605999999999918e+00 -3.746820000000000150e-01 -1.325426999999999911e+00 -1.339488000000000012e+00 3.232731999999999939e+00 2.176269000000000009e+00 4.331309999999999882e-01 -3.230836000000000041e+00 -2.637539999999999996e+00 1.269822999999999924e+00 -1.872285999999999895e+00 -1.574060000000000015e+00 -1.898692000000000046e+00 2.099300000000000124e-02 4.655460000000000154e-01 -1.902751999999999999e+00 -1.247469999999999968e-01 5.425210000000000310e-01 3.178570000000000007e-01 2.159580000000000111e-01 -1.227764000000000078e+00 2.211383000000000099e+00 1.354640000000000066e+00 -1.516289999999999916e+00 1.254443999999999892e+00 -3.094828999999999830e+00 -2.226731000000000016e+00 -1.160098000000000074e+00 2.508858000000000033e+00 -2.274170000000000080e-01 -2.237032000000000131e+00 -9.889980000000000437e-01 1.252663000000000082e+00 2.023911000000000016e+00 -1.819509000000000043e+00 -3.541148999999999880e+00 4.393699999999999828e-01 -1.709046999999999983e+00 6.977659999999999973e-01 -3.401640000000000219e-01 2.118593999999999866e+00 -8.537390000000000256e-01 -1.113418999999999937e+00 1.894010999999999889e+00 -2.863999999999999879e-02 1.736790000000000056e+00 -4.156100000000000072e-02 -6.421040000000000081e-01 1.360467000000000093e+00 -8.903010000000000090e-01 1.012903000000000109e+00 -7.909450000000000092e-01 1.862454000000000054e+00 3.165350999999999804e+00 4.048352000000000395e+00 7.735659999999999759e-01 6.981479999999999908e-01 -4.348961000000000077e+00 1.394776999999999934e+00 -2.359306999999999821e+00 3.432482999999999951e+00 3.068649999999999878e+00 2.870527000000000051e+00 3.239940999999999960e+00 1.183424000000000031e+00 2.782856999999999914e+00 -1.498572000000000015e+00 -2.026700000000000029e-02 3.013120000000000243e-01 2.923878000000000199e+00 -1.336320000000000008e-01 3.165636000000000116e+00 -3.581916000000000100e+00 8.667909999999999782e-01 -2.835969999999999880e-01 1.911205999999999960e+00 1.194541000000000075e+00 7.295070000000000165e-01 4.534270000000000245e-01
-1.290458000000000105e+00 -1.923810000000000020e+00 -7.962209999999999566e-01 2.396529999999999827e+00 1.953561000000000103e+00 -2.954749999999999877e-01 9.034389999999999921e-01 9.773560000000000025e-01 -4.746389999999999776e-01 -1.102537000000000100e+00 -2.581650999999999918e+00 -2.403594000000000008e+00 6.496950000000000225e-01 1.888681000000000054e+00 1.548710999999999949e+00 7.771000000000000130e-03 -2.020160000000000178e+00 -3.279830000000000245e-01 2.038367000000000040e+00 -2.437699999999999936e-02 -6.531430000000000291e-01 5.295099999999999807e-02 1.406981000000000037e+00 5.172900000000000276e-01 -1.191256000000000093e+00 1.698136000000000090e+00 8.724750000000000005e-01 2.769059999999999855e-01 1.096769999999999967e-01 -1.599202999999999930e+00 -4.967659999999999854e-01 1.566800000000000137e-02 -2.108298000000000005e+00 2.193610000000000004e-01 -1.760728000000000071e+00 -4.410514000000000046e+00 -2.855841999999999992e+00 -2.221192999999999973e+00 -1.620703999999999922e+00 5.070679999999999632e-01 -9.555200000000000360e-01 1.010768000000000111e+00 -1.019333000000000045e+00 -3.746916999999999831e+00 1.616448000000000107e+00 2.904221000000000164e+00 -4.170151999999999859e+00 -2.207971999999999824e+00 -1.117498000000000102e+00 4.772775000000000212e+00 -9.813790000000000013e-01 -3.955060000000000242e-01 -9.380399999999999849e-02 -4.850280000000000147e-01 -3.078816000000000219e+00 -4.515549000000000035e+00 -3.070758999999999794e+00 1.232831000000000010e+00 5.727579999999999893e-01 -8.878000000000000336e-01 -7.344380000000000353e-01 -2.521119999999999806e+00 3.391474999999999795e+00 1.336900000000000067e-02 -5.001759999999999540e-01 -1.549174999999999969e+00 2.196690999999999949e+00 -5.135509999999999797e-01 1.965878999999999932e+00 1.114637000000000100e+00 -6.048530000000000406e+00 3.568322000000000216e+00 7.659610000000000030e-01 1.158913000000000082e+00 6.197049999999999503e-01 1.205087999999999937e+00 -5.702169999999999739e-01 2.058377000000000123e+00 3.554686999999999930e+00 -5.538955999999999769e+00 -8.370030000000000525e-01 1.526809000000000083e+00 -2.280323999999999796e+00 -5.380749999999999700e-01 -3.124179999999999735e-01 1.867833999999999994e+00 -3.039040000000000075e-01 -1.704347999999999974e+00 -8.963560000000000416e-01 3.583838000000000079e+00 2.595985000000000209e+00 -2.037698999999999927e+00 -4.833516999999999619e+00 6.086960000000000148e-01 -8.649970000000000159e-01 1.038588000000000067e+00 -3.205200000000000271e-01 -1.957940999999999931e+00 8.181840000000000224e-01 -1.939594999999999958e+00 2.314521000000000051e+00 -2.441162999999999972e+00 1.329677999999999916e+00 1.607109999999999927e-01 -1.364306999999999936e+00 5.080540000000000056e-01 1.983320000000000083e-01 -6.700829999999999842e-01 -1.075871000000000022e+00 -1.334275000000000100e+00 -1.823136000000000090e+00 -1.105500000000000059e-02 5.773420000000000218e-01 1.081992000000000065e+00 3.867140000000000022e-01 2.090991999999999962e+00 -1.914312999999999931e+00 2.227737999999999996e+00 4.835833000000000048e+00 2.447268999999999917e+00 -1.097399999999999938e-02 1.143918999999999908e+00 7.712149999999999839e-01 7.945940000000000225e-01 2.273044000000000064e+00 -3.258829999999999782e-01 -4.139900000000000246e-01 6.226999999999999896e-02 6.629469999999999530e-01 1.063374000000000041e+00 -3.291901999999999884e+00 -3.005740000000000078e-01 1.431537999999999977e+00 2.544509000000000132e+00 3.040689999999999782e-01 1.923700000000000132e-01 9.086299999999999932e-02 1.469721999999999973e+00 -1.045560999999999963e+00 4.070911999999999864e+00 6.386865000000000236e+00 2.331957000000000058e+00 2.157220000000000137e+00 -1.982425000000000104e+00 -8.112070000000000114e-01 -2.082857999999999876e+00 6.503679999999999461e-01 6.144699999999999607e-01 -1.445888000000000062e+00 2.098978999999999928e+00 5.970180000000000486e-01 3.845830000000000082e-01 1.212757000000000085e+00 1.750080999999999998e+00 2.822912999999999784e+00 -7.937110000000000554e-01 8.780250000000000554e-01 -1.377126999999999990e+00 -3.044560000000000044e-01 3.192789999999999795e-01 -9.338769999999999571e-01 -2.341400000000000078e-02 3.069370000000000154e-01 -3.001909999999999856e-01 -5.590619999999999479e-01 -8.400300000000000544e-01 8.756030000000000202e-01 1.365669999999999940e-01 1.283056999999999892e+00 1.485448000000000102e+00 -2.193779000000000146e+00 -2.149770000000000014e-01 -1.294060999999999906e+00 -2.066259000000000068e+00 -6.706990000000000451e-01 2.048185000000000144e+00 2.129385000000000083e+00 2.131733000000000100e+00 2.331878000000000117e+00 -2.518152999999999864e+00 -4.191400000000000126e-01 1.010069000000000106e+00 1.148810000000000109e+00 -1.376249999999999973e-01 8.679179999999999673e-01 8.786620000000000541e-01 3.671789999999999776e-01 1.927146999999999943e+00 -1.591889000000000109e+00 -3.251902999999999988e+00 4.114448999999999579e+00 4.307844000000000229e+00 6.450679999999999747e-01 -2.498247000000000106e+00 4.018939999999999735e-01 -1.322591000000000072e+00 -1.401119999999999866e-01 -5.026899999999999702e-01 -1.679240000000000066e+00 -2.351858000000000004e+00 -5.975110000000000143e-01 3.439229999999999787e-01 -7.147090000000000387e-01 -3.725899999999999768e-01 -2.503467000000000109e+00 -2.563699000000000172e+00 6.106799999999999728e-02 -1.920169999999999932e+00 1.205152000000000001e+00 2.147390000000000132e-01 -1.851075999999999944e+00 3.694363000000000063e+00 3.081726000000000187e+00 -3.128130000000000077e+00 1.069806999999999952e+00 2.447029000000000121e+00 -6.780620000000000536e-01 -7.209670000000000245e-01 -2.159040000000000070e+00 1.012404000000000082e+00 1.282480000000000064e+00 2.979300000000000004e-02 -5.530899999999999705e-01 1.916031999999999957e+00 -7.027689999999999770e-01 -1.865466999999999986e+00 8.356209999999999471e-01 -1.564469000000000110e+00 6.715330000000000465e-01 3.551869999999999750e-01 3.233989999999999920e-01 -2.862797000000000036e+00 -1.258259999999999934e-01 1.034950000000000037e-01 3.589560000000000084e+00 5.252092000000000205e+00 2.152099999999999902e+00 -3.715330000000000021e-01 5.660300000000000331e-01 -1.239839999999999970e-01 -7.639380000000000059e-01 -1.525851000000000068e+00 1.247390999999999917e+00 7.692660000000000053e-01 -2.897920000000000051e+00 7.305199999999999472e-01 -9.716949999999999754e-01 8.004799999999999693e-01 -1.245946999999999916e+00 -2.022809999999999886e-01 -1.459862999999999911e+00 -3.364309999999999801e-01 1.977298999999999918e+00 -1.870953000000000088e+00 1.710350999999999955e+00 -2.385829999999999895e-01 -6.485140000000000349e-01 -1.283644000000000007e+00 7.457260000000000000e-01 -7.967469999999999830e-01 9.449000000000000801e-03 -1.261770000000000114e-01 -2.996260000000000034e-01 -9.302829999999999711e-01 -1.835072000000000036e+00 -2.682211000000000123e+00 -1.918682999999999916e+00 1.987270000000000092e+00 1.294364999999999988e+00 5.135830000000000117e-01 -1.787617999999999929e+00 2.408026000000000000e+00 7.331379999999999564e-01 -2.449465000000000003e+00 2.444062000000000179e+00 2.804463999999999846e+00 -2.234770000000000090e-01 1.854789000000000021e+00 -7.250010000000000066e-01 -1.230609999999999982e+00 -6.884810000000000096e-01 -1.141610999999999931e+00
-3.887941999999999787e+00 -2.634889999999999954e+00 -1.587776000000000076e+00 -5.692639999999999922e-01 -1.559179000000000093e+00 -1.861207999999999974e+00 -1.784310000000000063e-01 3.077980999999999856e+00 -1.474423999999999957e+00 1.220839999999999925e+00 5.737729999999999775e-01 1.019733000000000001e+00 -1.161705999999999905e+00 -2.037059999999999982e-01 -6.953669999999999574e-01 2.506550000000000167e-01 5.970699999999999896e-01 1.175380000000000036e-01 -7.799810000000000354e-01 -4.048900000000000277e-01 2.245044000000000040e+00 -3.481830000000000203e-01 -1.994614000000000109e+00 -6.324849999999999639e-01 -3.191631999999999802e+00 -2.579082999999999792e+00 -9.713159999999999572e-01 -9.191799999999999971e-02 1.489643000000000050e+00 3.711280000000000134e-01 3.091740000000000044e-01 -7.609700000000000353e-01 -6.232980000000000187e-01 -6.503799999999999581e-01 -1.434593000000000007e+00 -1.592003000000000057e+00 -3.184020999999999990e+00 2.212963999999999931e+00 4.386521000000000114e+00 4.028529999999999944e+00 -2.446832999999999814e+00 -9.729759999999999520e-01 -1.631172000000000066e+00 -1.131807999999999925e+00 -4.972989999999999911e-01 -6.607290000000000108e-01 -3.866079000000000043e+00 -2.633440000000000225e-01 3.103455999999999992e+00 1.343047000000000102e+00 -2.569469999999999921e+00 -1.223179999999999962e-01 -1.052389000000000019e+00 -2.926959000000000088e+00 -4.319279999999999786e-01 1.683556000000000052e+00 1.068621999999999961e+00 -8.063860000000000472e-01 -3.283698999999999923e+00 -6.184039999999999537e-01 -2.371405000000000207e+00 -1.397812000000000054e+00 2.374130000000000129e-01 -2.338238000000000039e+00 9.111299999999999955e-02 -6.772629999999999484e-01 1.652363000000000026e+00 1.053560000000000052e-01 -1.483484999999999943e+00 2.835970999999999798e+00 -1.813218999999999914e+00 -2.024217999999999851e+00 1.864934000000000092e+00 -4.661830000000000140e-01 4.615199999999999858e-01 6.713099999999999623e-01 -1.052712000000000092e+00 -2.165329999999999977e+00 -2.150150000000000117e-01 -1.491589000000000054e+00 1.694463999999999970e+00 -1.508396000000000070e+00 -3.279440000000000133e-01 -5.967369999999999619e-01 1.098751000000000033e+00 -2.244701000000000057e+00 4.876816999999999958e+00 2.072341000000000211e+00 2.201213999999999782e+00 1.016861000000000015e+00 1.074502999999999986e+00 -9.455379999999999896e-01 -9.580520000000000147e-01 2.388354999999999784e+00 -5.570000000000000298e-03 -2.392179999999999862e-01 2.848899999999999766e-01 -1.306356999999999990e+00 -1.868506000000000000e+00 1.010216999999999921e+00 2.692935999999999996e+00 1.568672999999999984e+00 6.646239999999999926e-01 -1.370457000000000036e+00 -9.709539999999999837e-01 -2.152690000000000214e+00 -4.691040000000000210e-01 1.027980000000000005e-01 -9.324699999999999656e-02 -1.787300000000000000e-02 1.787703999999999960e+00 -1.235225999999999935e+00 4.491319999999999757e-01 -1.201060000000000016e+00 1.482965000000000089e+00 -1.242223000000000077e+00 -2.345931000000000211e+00 -1.505100000000000014e-02 -1.398991000000000096e+00 -1.611291999999999947e+00 -3.414107000000000003e+00 1.524621999999999922e+00 1.608386000000000093e+00 -2.101570000000000105e-01 -1.074195999999999929e+00 -8.617960000000000065e-01 -1.543798000000000004e+00 -1.043015000000000025e+00 1.672600000000000128e-02 2.672880999999999840e+00 8.914090000000000069e-01 1.612169999999999992e-01 -2.525450000000000195e+00 2.142945000000000100e+00 2.945110999999999812e+00 -1.428372999999999893e+00 -4.343700000000000339e-02 -7.993860000000000410e-01 2.776381000000000210e+00 -1.579255999999999993e+00 3.039433999999999969e+00 -1.234223000000000070e+00 -6.366709999999999869e-01 -1.912875000000000103e+00 2.073183999999999916e+00 4.136520000000000197e-01 1.198328000000000060e+00 -1.201732000000000022e+00 -4.837270000000000181e-01 -4.079100000000000087e-02 1.637880999999999920e+00 2.305642999999999887e+00 -1.569531000000000009e+00 -2.012189999999999923e+00 -1.547527000000000097e+00 -1.824594999999999967e+00 -1.070789999999999936e-01 5.933519999999999905e-01 7.120389999999999775e-01 8.848699999999999621e-02 9.332650000000000112e-01 1.453165999999999958e+00 -1.854027000000000092e+00 -7.037999999999999985e-03 -1.626637000000000111e+00 -8.249849999999999683e-01 1.848192999999999975e+00 2.317849999999999910e-01 1.801075999999999899e+00 1.646158000000000010e+00 2.055921999999999805e+00 1.021473999999999993e+00 -1.900120999999999949e+00 6.163279999999999870e-01 7.806279999999999886e-01 -2.626859999999999751e-01 3.445790000000000242e-01 2.605599999999999930e-02 -6.069959999999999800e-01 -1.095069000000000070e+00 2.430498000000000047e+00 2.443416000000000032e+00 -6.952159999999999451e-01 3.200879999999999836e-01 -1.145464000000000038e+00 4.240789999999999837e-01 1.510064999999999991e+00 -1.882179999999999964e+00 -2.107530000000000125e+00 -1.777606999999999937e+00 1.518102999999999980e+00 2.481478000000000073e+00 1.568950000000000067e+00 -4.300570000000000226e-01 1.255397000000000096e+00 5.089067000000000007e+00 2.200403000000000109e+00 -3.810871000000000119e+00 9.005999999999999561e-01 1.324408000000000030e+00 3.174986000000000086e+00 6.575959999999999583e-01 3.381509999999999794e-01 1.769581999999999988e+00 1.143305999999999933e+00 -1.723000000000000087e-01 2.821131999999999973e+00 9.062109999999999888e-01 8.325200000000000378e-01 9.024330000000000407e-01 -2.300190999999999875e+00 -4.418772999999999840e+00 1.241199999999999942e-02 -5.970029999999999504e-01 -2.932830000000000159e-01 1.732663999999999982e+00 2.111879000000000062e+00 1.979838999999999904e+00 2.127197999999999922e+00 -1.864664000000000099e+00 -8.821590000000000265e-01 -8.361709999999999976e-01 -1.642628999999999895e+00 1.199815999999999994e+00 1.021153999999999895e+00 -1.269301000000000013e+00 1.887499000000000038e+00 1.021787000000000001e+00 1.799840000000000051e-01 -5.755289999999999573e-01 1.202744000000000035e+00 8.420680000000000387e-01 5.673749999999999627e-01 -9.369880000000000431e-01 -4.647200000000000220e-01 -6.922260000000000080e-01 1.257832999999999979e+00 -1.441338000000000008e+00 1.524912999999999963e+00 -2.787628999999999913e+00 -7.947490000000000387e-01 1.044199999999999989e-01 -9.788219999999999699e-01 -2.111000000000000029e-03 2.031165999999999805e+00 1.216234999999999955e+00 -1.302200999999999942e+00 6.154509999999999703e-01 -2.842709999999999959e-01 2.742989000000000122e+00 1.002936999999999967e+00 1.607669000000000015e+00 -2.847735999999999823e+00 2.553850000000000176e+00 -3.268670000000000186e+00 -5.269249999999999767e-01 -5.865150000000000086e-01 2.238897999999999833e+00 1.697720000000000062e-01 -2.092400000000000093e-01 1.016877999999999949e+00 -4.964500000000000163e-02 2.772314999999999863e+00 -1.341515000000000013e+00 1.637672999999999934e+00 -1.068073999999999968e+00 1.651940000000000075e-01 1.476687000000000083e+00 1.618425000000000002e+00 -2.817133000000000109e+00 1.975969999999999949e-01 7.987419999999999520e-01 1.531770000000000076e+00 3.858150000000000190e-01 1.139213000000000031e+00 1.158529999999999976e-01 -5.319890000000000452e-01 3.555247000000000046e+00 -2.161131999999999831e+00 -1.768585999999999991e+00 -3.817559999999999842e-01 7.497700000000000475e-01