1.010600999999999949e+01 2.686700000000000088e+00 2.616420000000000190e+00 -1.717000000000000123e-02 2.702580000000000204e+00 8.029700000000000060e+00 9.883190000000000808e+00 7.756809999999999761e+00 2.689529999999999976e+00 1.016641000000000084e+01 7.769660000000000011e+00 8.306739999999999569e+00 4.982719999999999594e+00 2.819669999999999899e+00 2.488640000000000185e+00 5.171240000000000059e+00 2.574429999999999996e+00 7.961610000000000298e+00 5.374729999999999563e+00 7.768519999999999648e+00 2.772009999999999863e+00 5.489379999999999704e+00 7.923180000000000334e+00 8.271269999999999456e+00 2.431369999999999809e+00 2.167600000000000082e-01 2.486679999999999779e+00 2.594679999999999875e+00 9.266000000000000625e-02 7.423320000000000363e+00 2.333860000000000046e+00 5.354070000000000107e+00 2.568119999999999958e+00 2.214700000000000113e+00 5.160230000000000317e+00 7.736170000000000435e+00 7.610039999999999694e+00 1.024384000000000050e+01 3.050580000000000069e+00 8.156769999999999854e+00 4.832999999999999796e-02 7.890390000000000015e+00 7.545700000000000074e+00 5.012599999999999945e+00 2.654310000000000169e+00 7.507950000000000124e+00 4.889269999999999783e+00 7.877900000000000347e+00 2.400999999999999801e+00 2.803749999999999964e+00 5.248109999999999609e+00 2.653160000000000185e+00 2.688540000000000152e+00 1.030150000000000077e+01 2.697859999999999925e+00 7.624530000000000030e+00 5.639949999999999797e+00 2.535229999999999873e+00 7.823809999999999931e+00 1.553999999999999999e-02 7.631120000000000125e+00 2.655980000000000008e+00 5.177940000000000431e+00 7.951900000000000190e+00 3.065729999999999844e+00 3.905999999999999750e-02 7.689530000000000420e+00 7.675810000000000244e+00 5.493660000000000210e+00 7.496990000000000265e+00 7.588099999999999845e+00 1.645300000000000096e-01 7.187000000000000333e-02 1.018354000000000070e+01 5.378560000000000230e+00 9.903679999999999595e+00 1.020553999999999917e+01 3.052000000000000268e-01 1.008921999999999919e+01 5.352780000000000094e+00 5.337130000000000152e+00 2.170100000000000084e-01 5.206879999999999953e+00 1.044309999999999938e+01 5.005489999999999995e+00 4.083300000000000263e-01 4.663420000000000343e+00 4.970489999999999853e+00 4.674999999999999989e-02 1.050220000000000020e+01 4.990719999999999601e+00 5.553960000000000008e+00 5.411209999999999631e+00 5.148049999999999571e+00 5.379929999999999879e+00 1.051699999999999946e+01 3.270830000000000126e+00 4.500219999999999665e+00 3.873520000000000074e+00 4.011120000000000019e+00 4.287279999999999980e+00 8.846280000000000143e+00 3.684779999999999944e+00 9.653019999999999712e+00 3.448739999999999917e+00 3.761800000000000033e+00 9.332060000000000244e+00 8.933199999999999363e+00 8.696690000000000254e+00 3.734900000000000109e+00 3.673719999999999875e+00 9.048360000000000625e+00 4.281710000000000349e+00 9.231700000000000017e+00 9.007939999999999614e+00 8.880190000000000694e+00 4.208849999999999980e+00 8.861620000000000275e+00 9.124180000000000845e+00 9.514620000000000744e+00 4.100270000000000081e+00 1.356910000000000061e+00 1.394449999999999967e+00 4.374130000000000074e+00 1.234010000000000051e+00 6.608500000000000263e+00 4.160840000000000316e+00 6.551359999999999850e+00 1.715529999999999999e+00 3.772670000000000190e+00 6.496349999999999625e+00 7.125420000000000087e+00 9.013170000000000570e+00 1.441750000000000087e+00 1.560400000000000009e+00 9.160920000000000840e+00 1.461379999999999901e+00 6.976069999999999993e+00 8.213359999999999772e+00 6.679079999999999906e+00 1.943689999999999918e+00 8.712899999999999423e+00 6.443349999999999689e+00 6.882419999999999760e+00 3.798810000000000020e+00 1.972339999999999982e+00 4.116340000000000110e+00 4.384310000000000151e+00 1.963799999999999990e+00 9.762620000000000076e+00 3.888570000000000082e+00 6.783459999999999823e+00 4.293820000000000192e+00 4.146709999999999674e+00 6.838339999999999641e+00 9.884629999999999583e+00 8.686899999999999622e+00 1.206660000000000066e+00 4.214140000000000441e+00 9.247650000000000148e+00 1.609280000000000044e+00 9.601000000000000867e+00 8.961050000000000182e+00 6.354779999999999873e+00 4.247410000000000352e+00 9.250030000000000641e+00 6.552880000000000038e+00 9.960850000000000648e+00 3.647419999999999884e+00 3.981219999999999981e+00 1.102770000000000028e+00 3.800129999999999786e+00 4.110759999999999970e+00 6.432470000000000354e+00 3.185280000000000111e+00 9.253659999999999997e+00 1.013439999999999896e+00 3.850260000000000016e+00 9.177049999999999486e+00 5.989580000000000126e+00 9.089430000000000121e+00 4.080989999999999895e+00 1.338500000000000023e+00 8.983959999999999724e+00 3.890249999999999986e+00 6.620630000000000237e+00 8.605219999999999203e+00 9.041069999999999496e+00 1.451040000000000108e+00 9.536300000000000665e+00 9.155590000000000117e+00 6.821019999999999861e+00 1.280399999999999983e+00 1.460530000000000106e+00 3.666290000000000049e+00 1.691789999999999905e+00 1.557879999999999932e+00 8.312950000000000728e+00 8.732600000000000362e-01 6.256450000000000067e+00 3.816300000000000026e+00 1.329700000000000104e+00 6.141440000000000232e+00 9.187849999999999184e+00 6.527619999999999756e+00 1.674830000000000041e+00 3.230370000000000186e+00 6.478959999999999830e+00 8.664100000000000135e-01 9.124520000000000408e+00 6.404449999999999754e+00 6.649040000000000283e+00 3.933479999999999865e+00 6.515080000000000204e+00 6.263600000000000279e+00 9.084289999999999310e+00 1.109050000000000091e+00 3.987769999999999815e+00 1.608810000000000073e+00 1.427540000000000031e+00 3.554800000000000182e+00 6.892489999999999561e+00 6.660300000000000109e-01 9.216939999999999245e+00 2.003659999999999997e+00 1.637429999999999941e+00 8.627509999999999124e+00 7.637959999999999638e+00 6.332939999999999792e+00 4.022289999999999921e+00 1.412709999999999910e+00 6.204320000000000057e+00 3.862039999999999917e+00 6.670490000000000030e+00 6.019339999999999691e+00 9.411739999999999995e+00 1.541630000000000056e+00 7.166999999999999815e+00 8.518250000000000099e+00 7.446509999999999962e+00 8.112700000000000466e-01 3.694409999999999972e+00 4.384520000000000195e+00 1.229179999999999939e+00 3.861530000000000129e+00 9.178580000000000183e+00 1.266129999999999978e+00 8.676619999999999777e+00 4.709369999999999834e+00 1.010580000000000034e+00 8.957390000000000185e+00 9.837369999999999948e+00 5.937640000000000029e+00 4.380709999999999660e+00 4.119110000000000049e+00 6.550419999999999909e+00 3.668210000000000193e+00 9.481640000000000512e+00 6.239569999999999617e+00 9.284869999999999735e+00 4.157899999999999707e+00 6.169889999999999652e+00 8.726250000000000284e+00 9.840180000000000149e+00 1.581469999999999931e+00 1.372130000000000072e+00 8.781299999999999661e-01 1.791039999999999965e+00 9.211700000000000443e-01 5.920790000000000219e+00 1.357790000000000052e+00 6.507100000000000328e+00 1.166330000000000089e+00 1.112619999999999942e+00 6.275269999999999904e+00 6.417500000000000426e+00
1.006531999999999982e+01 2.751879999999999882e+00 2.918270000000000142e+00 9.728220000000000312e+00 2.490740000000000176e+00 8.112289999999999779e+00 2.172600000000000087e-01 7.854580000000000339e+00 2.757449999999999957e+00 -4.331000000000000127e-02 7.695789999999999687e+00 7.790969999999999729e+00 5.056840000000000224e+00 2.641509999999999803e+00 2.780499999999999972e+00 5.187149999999999928e+00 2.485230000000000050e+00 7.824989999999999668e+00 4.975080000000000169e+00 7.924559999999999604e+00 2.642990000000000173e+00 5.216960000000000264e+00 7.601689999999999614e+00 7.643510000000000026e+00 2.601430000000000131e+00 2.636399999999999855e-01 2.222649999999999793e+00 2.415350000000000108e+00 7.026000000000000301e-02 8.002459999999999241e+00 2.880560000000000009e+00 5.269379999999999953e+00 2.635209999999999830e+00 2.251129999999999853e+00 4.899219999999999686e+00 7.678749999999999964e+00 7.612650000000000361e+00 1.011026000000000025e+01 2.407090000000000174e+00 7.590810000000000279e+00 5.623999999999999833e-02 7.895279999999999632e+00 7.854140000000000121e+00 5.226060000000000372e+00 2.755139999999999922e+00 7.731200000000000294e+00 5.173449999999999882e+00 8.133570000000000633e+00 2.424560000000000048e+00 2.618370000000000086e+00 5.196419999999999817e+00 2.560680000000000067e+00 3.054209999999999869e+00 1.050908000000000087e+01 2.705400000000000027e+00 7.713210000000000122e+00 5.255419999999999980e+00 2.635959999999999859e+00 7.809630000000000294e+00 1.030188000000000059e+01 7.226149999999999629e+00 2.581389999999999851e+00 5.382360000000000255e+00 7.457049999999999734e+00 2.793800000000000061e+00 4.851099999999999857e-01 7.637199999999999989e+00 7.931440000000000268e+00 4.992569999999999730e+00 7.709450000000000358e+00 7.988830000000000098e+00 1.021637999999999913e+01 2.122999999999999887e-02 1.636499999999999899e-01 5.221669999999999590e+00 8.358999999999999764e-02 2.350299999999999889e-01 1.035528000000000048e+01 9.860189999999999344e+00 5.269589999999999996e+00 5.332779999999999632e+00 1.960300000000000098e-01 5.222940000000000360e+00 3.735499999999999932e-01 4.936659999999999826e+00 1.024030999999999914e+01 5.320210000000000328e+00 5.008119999999999905e+00 1.168700000000000017e-01 1.034168000000000021e+01 4.808569999999999567e+00 4.944429999999999659e+00 5.579399999999999693e+00 4.799680000000000391e+00 5.207230000000000025e+00 1.049938000000000038e+01 3.660829999999999806e+00 3.744470000000000187e+00 3.834639999999999826e+00 3.405720000000000081e+00 4.304850000000000065e+00 9.407280000000000086e+00 3.645220000000000127e+00 9.206820000000000448e+00 3.700009999999999799e+00 3.441990000000000105e+00 8.815810000000000812e+00 8.678359999999999630e+00 8.774609999999999133e+00 4.137859999999999872e+00 4.212729999999999642e+00 8.623039999999999594e+00 3.936409999999999965e+00 9.592409999999999215e+00 8.982179999999999609e+00 9.266560000000000130e+00 3.558530000000000193e+00 8.975600000000000023e+00 8.998480000000000700e+00 8.957869999999999777e+00 4.463820000000000121e+00 1.127289999999999903e+00 1.540790000000000104e+00 4.363000000000000433e+00 1.097239999999999993e+00 6.749859999999999971e+00 4.339789999999999814e+00 6.245610000000000106e+00 1.808559999999999945e+00 3.859770000000000145e+00 6.197400000000000020e+00 6.714949999999999974e+00 8.491369999999999862e+00 1.429389999999999938e+00 1.650020000000000042e+00 9.341039999999999566e+00 7.534100000000000241e-01 7.056329999999999991e+00 9.170669999999999433e+00 6.371529999999999916e+00 1.593900000000000095e+00 9.211719999999999686e+00 6.139870000000000161e+00 6.868780000000000108e+00 3.864469999999999850e+00 1.279150000000000009e+00 4.308080000000000354e+00 3.418120000000000047e+00 1.359250000000000069e+00 9.474759999999999849e+00 4.086599999999999788e+00 6.383309999999999818e+00 4.149499999999999744e+00 3.886899999999999800e+00 6.737820000000000142e+00 9.207269999999999399e+00 8.962239999999999540e+00 1.692909999999999915e+00 4.434020000000000294e+00 8.572710000000000719e+00 1.308370000000000033e+00 9.522059999999999746e+00 9.041479999999999961e+00 6.642409999999999926e+00 4.173239999999999839e+00 8.750249999999999417e+00 6.297970000000000290e+00 9.600009999999999266e+00 3.927690000000000126e+00 3.770579999999999821e+00 1.483270000000000088e+00 3.699819999999999887e+00 3.743119999999999781e+00 6.708560000000000301e+00 3.690259999999999874e+00 9.267450000000000188e+00 1.273630000000000040e+00 4.028850000000000264e+00 8.555839999999999890e+00 6.265620000000000189e+00 9.114860000000000184e+00 3.896500000000000075e+00 1.410230000000000095e+00 8.888939999999999841e+00 3.701470000000000038e+00 6.883029999999999760e+00 8.796409999999999840e+00 9.132540000000000546e+00 1.058170000000000055e+00 9.097350000000000492e+00 8.636990000000000833e+00 5.962939999999999685e+00 1.289549999999999974e+00 1.171340000000000048e+00 3.931439999999999824e+00 7.618300000000000072e-01 1.173680000000000057e+00 8.693860000000000809e+00 1.559460000000000068e+00 6.605669999999999931e+00 3.382800000000000029e+00 9.608700000000000019e-01 6.339620000000000033e+00 8.663420000000000343e+00 6.379789999999999850e+00 1.512529999999999930e+00 3.883750000000000036e+00 6.088820000000000121e+00 9.035199999999999898e-01 8.696519999999999584e+00 6.769989999999999952e+00 6.928160000000000096e+00 2.567590000000000039e+00 5.912810000000000343e+00 6.113260000000000360e+00 8.684810000000000585e+00 1.367459999999999898e+00 3.885990000000000055e+00 1.808300000000000018e+00 1.128940000000000055e+00 3.463020000000000209e+00 6.866480000000000139e+00 1.094959999999999933e+00 9.514929999999999666e+00 1.222390000000000088e+00 1.426690000000000014e+00 8.593550000000000466e+00 6.886840000000000295e+00 6.480749999999999567e+00 3.862769999999999815e+00 1.832489999999999952e+00 6.380919999999999703e+00 4.065690000000000026e+00 6.849440000000000417e+00 6.059560000000000279e+00 9.374409999999999243e+00 1.363869999999999916e+00 6.389739999999999753e+00 9.177199999999999136e+00 6.536780000000000257e+00 1.056480000000000086e+00 3.646220000000000017e+00 4.486259999999999692e+00 8.828200000000000491e-01 3.518409999999999815e+00 9.488979999999999748e+00 1.073739999999999917e+00 8.949410000000000309e+00 4.327670000000000350e+00 1.181079999999999908e+00 8.985760000000000858e+00 9.541949999999999932e+00 6.318249999999999922e+00 4.095150000000000290e+00 4.427590000000000359e+00 5.809359999999999857e+00 3.594679999999999875e+00 9.680509999999999948e+00 6.309140000000000192e+00 9.066179999999999239e+00 4.181289999999999729e+00 5.963770000000000238e+00 8.601250000000000284e+00 9.311809999999999476e+00 1.382800000000000029e+00 1.414860000000000007e+00 1.025730000000000031e+00 1.659589999999999899e+00 1.099920000000000009e+00 6.294019999999999726e+00 1.964939999999999909e+00 6.030680000000000263e+00 7.473999999999999533e-01 1.495640000000000081e+00 5.986150000000000304e+00 5.756179999999999630e+00
2.445599999999999996e-01 2.679129999999999789e+00 2.673630000000000173e+00 1.013034000000000034e+01 2.445180000000000131e+00 7.872060000000000279e+00 9.914939999999999642e+00 7.769860000000000433e+00 2.452179999999999804e+00 -4.528999999999999693e-02 7.589909999999999712e+00 7.847369999999999735e+00 4.757430000000000270e+00 2.976459999999999884e+00 2.626489999999999991e+00 5.286410000000000053e+00 2.606860000000000177e+00 8.074249999999999261e+00 4.839360000000000106e+00 7.779029999999999667e+00 2.532220000000000137e+00 5.069149999999999601e+00 7.802940000000000431e+00 7.722529999999999895e+00 2.609160000000000146e+00 2.478400000000000047e-01 2.876729999999999787e+00 2.771250000000000213e+00 4.635999999999999843e-02 7.897079999999999878e+00 2.404389999999999805e+00 5.305690000000000239e+00 2.615600000000000147e+00 2.687230000000000008e+00 5.230089999999999684e+00 7.858139999999999681e+00 7.544500000000000206e+00 1.613199999999999912e-01 2.555829999999999824e+00 7.736229999999999940e+00 2.126099999999999934e-01 7.560039999999999871e+00 7.600100000000000300e+00 4.855979999999999741e+00 2.624699999999999811e+00 7.385049999999999670e+00 5.104560000000000208e+00 7.907090000000000174e+00 2.405089999999999950e+00 2.511719999999999953e+00 5.590799999999999770e+00 2.602440000000000087e+00 3.107450000000000045e+00 1.023389000000000060e+01 2.327980000000000160e+00 7.833000000000000185e+00 5.190579999999999750e+00 2.530470000000000219e+00 7.832099999999999618e+00 1.023888999999999960e+01 7.538030000000000008e+00 2.557599999999999874e+00 5.347999999999999865e+00 7.336260000000000225e+00 2.713429999999999787e+00 2.847100000000000186e-01 7.794400000000000439e+00 7.655490000000000350e+00 5.088260000000000005e+00 7.738520000000000287e+00 7.653839999999999755e+00 1.034589000000000070e+01 1.000104999999999933e+01 1.016183999999999976e+01 5.112359999999999793e+00 9.218999999999999417e-02 2.128999999999999990e-02 7.523000000000000520e-02 6.176999999999999852e-02 5.167250000000000121e+00 5.397590000000000110e+00 9.967169999999999419e+00 4.888499999999999623e+00 1.044158999999999970e+01 5.065380000000000216e+00 2.291400000000000103e-01 5.241929999999999978e+00 4.812190000000000190e+00 2.301999999999999880e-02 4.834200000000000164e-01 5.288640000000000008e+00 5.060039999999999871e+00 5.237619999999999720e+00 4.989530000000000243e+00 5.623820000000000263e+00 1.003600000000000048e-01 4.008090000000000153e+00 4.544439999999999813e+00 3.596989999999999910e+00 4.054149999999999920e+00 4.036810000000000009e+00 9.224380000000000024e+00 3.768029999999999990e+00 9.160470000000000113e+00 4.099120000000000097e+00 3.493310000000000137e+00 9.267360000000000042e+00 9.343009999999999593e+00 8.864229999999999166e+00 3.739129999999999843e+00 4.509820000000000384e+00 9.108660000000000423e+00 3.159510000000000041e+00 9.618050000000000210e+00 8.909689999999999444e+00 8.977249999999999730e+00 3.779720000000000191e+00 8.707219999999999516e+00 8.666679999999999495e+00 9.139020000000000366e+00 3.756590000000000096e+00 1.355609999999999982e+00 1.644810000000000105e+00 4.097760000000000069e+00 1.303279999999999994e+00 6.669629999999999725e+00 3.117719999999999825e+00 6.252769999999999939e+00 9.577799999999999647e-01 4.137880000000000003e+00 6.304710000000000036e+00 6.598790000000000155e+00 8.406309999999999505e+00 9.046499999999999542e-01 7.845199999999999951e-01 8.938599999999999213e+00 1.373350000000000071e+00 6.232840000000000380e+00 8.281359999999999388e+00 6.383320000000000327e+00 1.327369999999999939e+00 8.753270000000000550e+00 6.365610000000000213e+00 6.729239999999999888e+00 3.855900000000000105e+00 1.603269999999999973e+00 4.014759999999999884e+00 3.946769999999999889e+00 1.619909999999999961e+00 9.398400000000000531e+00 3.428059999999999885e+00 6.931650000000000311e+00 3.627909999999999968e+00 3.887900000000000134e+00 6.700520000000000032e+00 8.973649999999999238e+00 9.125510000000000232e+00 1.390269999999999895e+00 3.703910000000000036e+00 9.320930000000000604e+00 8.289499999999999647e-01 8.699329999999999785e+00 8.885279999999999845e+00 6.447040000000000326e+00 4.149560000000000137e+00 8.721750000000000114e+00 5.930450000000000443e+00 9.419710000000000250e+00 3.799360000000000070e+00 3.873060000000000169e+00 1.167580000000000062e+00 3.762599999999999945e+00 3.840819999999999901e+00 6.212939999999999685e+00 3.252320000000000100e+00 9.100270000000000081e+00 1.537190000000000056e+00 3.878089999999999815e+00 9.086539999999999395e+00 6.765609999999999680e+00 8.941060000000000230e+00 3.676590000000000025e+00 1.592899999999999983e+00 8.903529999999999944e+00 3.880710000000000104e+00 7.170350000000000001e+00 8.595860000000000056e+00 8.881320000000000547e+00 1.280019999999999936e+00 8.891489999999999227e+00 9.100379999999999470e+00 6.361309999999999576e+00 1.542650000000000077e+00 1.380619999999999958e+00 4.221599999999999575e+00 1.650139999999999940e+00 1.468520000000000048e+00 9.426589999999999137e+00 1.352219999999999978e+00 6.271690000000000431e+00 4.443489999999999718e+00 1.105529999999999902e+00 6.300329999999999764e+00 9.553829999999999600e+00 6.770859999999999879e+00 9.273799999999999821e-01 4.259319999999999773e+00 6.735590000000000188e+00 1.443510000000000071e+00 8.933189999999999742e+00 6.569549999999999557e+00 6.087180000000000035e+00 3.882140000000000146e+00 6.241710000000000313e+00 6.476569999999999716e+00 9.229549999999999699e+00 1.386020000000000030e+00 3.835129999999999928e+00 1.400609999999999911e+00 9.462000000000000410e-01 3.659679999999999822e+00 6.477030000000000065e+00 1.042869999999999964e+00 8.535130000000000550e+00 1.069919999999999982e+00 1.143459999999999921e+00 8.779690000000000438e+00 6.493210000000000370e+00 6.301000000000000156e+00 4.657630000000000159e+00 1.260550000000000059e+00 6.356049999999999756e+00 3.717900000000000205e+00 6.684350000000000236e+00 5.634420000000000428e+00 8.617789999999999395e+00 7.085599999999999676e-01 6.384830000000000005e+00 8.748239999999999128e+00 6.120879999999999654e+00 1.675119999999999942e+00 3.746300000000000185e+00 4.053480000000000416e+00 1.296370000000000022e+00 3.805009999999999781e+00 9.098869999999999791e+00 1.097350000000000048e+00 8.927569999999999339e+00 3.902480000000000171e+00 1.197500000000000009e+00 9.040720000000000312e+00 8.868679999999999453e+00 6.217889999999999695e+00 3.543400000000000105e+00 4.074799999999999756e+00 6.452239999999999753e+00 3.928500000000000103e+00 9.436669999999999447e+00 6.273880000000000123e+00 8.822409999999999641e+00 3.194100000000000161e+00 6.172209999999999752e+00 8.974740000000000606e+00 8.948389999999999844e+00 9.178600000000000092e-01 8.751700000000000035e-01 1.743460000000000010e+00 1.364279999999999937e+00 1.125299999999999967e+00 7.006470000000000198e+00 3.809500000000000108e-01 5.913689999999999891e+00 2.055120000000000058e+00 1.360260000000000025e+00 6.318609999999999616e+00 6.916430000000000078e+00
2.137900000000000078e-01 2.518679999999999808e+00 2.585980000000000167e+00 1.031065000000000076e+01 3.100340000000000096e+00 8.060650000000000759e+00 9.855339999999999989e+00 7.911120000000000374e+00 3.030850000000000044e+00 1.013999999999999971e-02 8.101649999999999352e+00 7.955330000000000013e+00 5.232079999999999842e+00 2.927099999999999813e+00 2.134840000000000071e+00 5.159760000000000346e+00 2.761120000000000019e+00 7.910919999999999952e+00 5.019389999999999574e+00 7.681099999999999817e+00 2.639600000000000168e+00 5.153999999999999915e+00 8.154270000000000351e+00 8.130200000000000315e+00 2.368409999999999904e+00 1.033483000000000018e+01 2.951649999999999885e+00 2.565049999999999830e+00 3.921999999999999792e-02 7.689650000000000318e+00 2.417229999999999990e+00 5.338960000000000150e+00 2.640969999999999818e+00 2.386880000000000113e+00 5.715480000000000338e+00 8.315659999999999386e+00 7.556820000000000093e+00 1.064400000000000068e-01 2.952900000000000080e+00 8.007680000000000575e+00 3.509700000000000042e-01 8.005900000000000460e+00 7.388609999999999900e+00 5.014370000000000438e+00 2.755660000000000220e+00 7.571559999999999846e+00 5.346639999999999837e+00 8.465389999999999304e+00 2.520090000000000163e+00 2.382219999999999782e+00 5.114840000000000053e+00 2.814270000000000049e+00 2.708590000000000053e+00 1.035115000000000052e+01 2.633789999999999853e+00 7.706739999999999924e+00 5.332300000000000040e+00 2.483210000000000139e+00 8.345950000000000202e+00 1.037000000000000074e-02 7.940710000000000157e+00 3.035089999999999844e+00 5.195319999999999716e+00 8.159240000000000492e+00 2.340320000000000178e+00 2.472699999999999898e-01 7.406450000000000422e+00 7.587970000000000326e+00 5.773049999999999571e+00 8.008760000000000545e+00 7.852159999999999584e+00 3.219799999999999884e-01 1.000113999999999947e+01 2.123700000000000032e-01 5.168840000000000323e+00 2.042700000000000071e-01 3.103400000000000047e-01 1.066535000000000011e+01 -4.825000000000000122e-02 5.389059999999999739e+00 5.392599999999999838e+00 -1.213999999999999975e-02 5.064449999999999896e+00 3.606199999999999961e-01 5.224680000000000213e+00 1.020482999999999940e+01 5.634009999999999962e+00 5.570260000000000211e+00 1.035523000000000060e+01 1.050164999999999971e+01 4.805340000000000167e+00 5.126940000000000275e+00 5.220069999999999766e+00 5.111250000000000071e+00 5.150129999999999875e+00 1.045914999999999928e+01 3.393749999999999822e+00 3.642009999999999970e+00 3.735370000000000079e+00 3.815069999999999961e+00 4.176960000000000228e+00 9.168449999999999989e+00 4.326039999999999885e+00 8.906629999999999825e+00 4.050110000000000099e+00 4.261000000000000121e+00 9.490019999999999456e+00 9.447749999999999204e+00 8.816910000000000025e+00 4.619780000000000442e+00 4.448140000000000427e+00 8.544620000000000104e+00 6.021899999999999586e+00 1.028775000000000084e+01 9.416349999999999554e+00 9.890010000000000190e+00 3.343649999999999789e+00 9.489470000000000738e+00 8.845159999999999911e+00 9.522050000000000125e+00 4.672469999999999679e+00 2.060109999999999886e+00 3.380900000000000016e-01 3.747640000000000082e+00 9.844100000000000072e-01 6.160549999999999748e+00 3.962460000000000093e+00 4.627640000000000420e+00 1.300259999999999971e+00 3.256289999999999907e+00 6.022240000000000038e+00 6.567739999999999689e+00 9.352759999999999962e+00 9.349399999999999933e-01 1.269819999999999949e+00 8.796509999999999607e+00 1.881850000000000023e+00 7.022789999999999644e+00 7.999699999999999811e+00 7.063620000000000232e+00 2.206830000000000069e+00 8.635239999999999583e+00 6.849169999999999980e+00 7.461409999999999876e+00 4.231709999999999638e+00 1.370020000000000016e+00 3.166440000000000143e+00 3.388539999999999885e+00 1.776999999999999913e+00 8.580370000000000275e+00 6.276690000000000325e+00 6.464640000000000164e+00 3.917889999999999873e+00 3.430460000000000065e+00 6.957580000000000098e+00 9.313470000000000582e+00 9.031869999999999621e+00 1.699449999999999905e+00 4.243719999999999715e+00 8.796709999999999141e+00 3.981660000000000199e+00 9.141239999999999810e+00 9.185840000000000671e+00 6.872959999999999958e+00 4.960950000000000415e+00 6.071880000000000166e+00 6.470579999999999998e+00 8.944309999999999761e+00 6.623160000000000380e+00 1.537539999999999907e+00 1.889320000000000110e+00 4.111229999999999940e+00 3.511779999999999902e+00 6.345080000000000275e+00 4.188049999999999606e+00 8.931300000000000239e+00 1.284540000000000015e+00 3.842999999999999972e+00 8.972120000000000317e+00 6.798739999999999561e+00 9.255860000000000198e+00 3.460389999999999855e+00 1.582789999999999919e+00 7.312299999999999578e+00 4.045720000000000205e+00 6.857490000000000308e+00 1.000427000000000000e+01 8.685470000000000468e+00 1.053840000000000110e+00 8.983930000000000859e+00 9.732950000000000657e+00 6.806049999999999933e+00 1.247880000000000100e+00 9.866700000000000470e-01 3.978040000000000020e+00 1.011700000000000044e+00 1.581460000000000088e+00 9.407799999999999940e+00 9.557600000000000540e-01 6.384870000000000267e+00 3.824889999999999901e+00 6.043199999999999683e-01 6.779230000000000089e+00 9.619960000000000733e+00 6.700059999999999683e+00 1.298249999999999904e+00 4.712950000000000195e+00 6.812420000000000364e+00 1.054820000000000091e+00 9.549260000000000304e+00 5.958999999999999631e+00 6.666579999999999728e+00 8.947100000000000053e-01 5.866319999999999979e+00 6.585720000000000240e+00 6.542349999999999888e+00 6.836499999999999799e-01 4.377089999999999925e+00 2.102479999999999905e+00 1.226709999999999967e+00 4.307809999999999917e+00 7.227020000000000444e+00 1.789749999999999952e+00 9.621850000000000236e+00 1.096090000000000009e+00 1.260909999999999975e+00 9.225039999999999907e+00 6.639129999999999754e+00 6.678849999999999731e+00 4.139210000000000278e+00 1.188339999999999952e+00 5.896899999999999586e+00 9.979700000000000237e-01 7.384109999999999729e+00 7.283979999999999677e+00 9.605859999999999843e+00 1.288999999999999924e+00 6.598930000000000184e+00 9.123139999999999361e+00 7.085549999999999571e+00 9.564099999999999824e-01 3.444350000000000023e+00 4.312030000000000030e+00 1.102740000000000054e+00 3.903630000000000155e+00 9.968130000000000379e+00 1.641210000000000058e+00 8.707729999999999748e+00 3.891770000000000174e+00 1.644279999999999964e+00 9.323760000000000048e+00 9.044169999999999376e+00 6.060979999999999812e+00 3.783889999999999976e+00 4.249789999999999957e+00 6.207449999999999690e+00 3.933860000000000134e+00 9.122479999999999478e+00 6.788579999999999615e+00 9.125339999999999563e+00 4.499920000000000364e+00 6.477970000000000006e+00 8.751960000000000406e+00 9.707819999999999894e+00 1.602970000000000006e+00 1.839280000000000026e+00 1.179950000000000054e+00 1.050950000000000051e+00 1.566829999999999945e+00 6.629660000000000331e+00 2.956469999999999931e+00 7.039170000000000371e+00 1.599110000000000031e+00 1.119520000000000071e+00 6.678889999999999993e+00 6.618280000000000385e+00