2.927137999999999796e+00 1.217975000000000030e+00 2.015978000000000048e+00 -9.249340000000000339e-01 5.068850000000000300e-01 4.563610000000000166e-01 4.149660000000000015e-01 -2.641684000000000143e+00 2.369193000000000104e+00 8.880620000000000180e-01 1.119248000000000021e+00 8.654119999999999591e-01 -2.008268999999999860e+00 1.339709999999999956e+00 3.891839999999999744e-01 -4.448019999999999752e-01 1.564750000000000030e-01 -6.120579999999999909e-01 -3.092938000000000187e+00 8.891850000000000032e-01 -1.779921000000000086e+00 -4.122906999999999655e+00 -1.951303999999999927e+00 -1.875135999999999914e+00 -8.576639999999999819e-01 8.998469999999999525e-01 -1.615113999999999939e+00 4.745466000000000406e+00 -2.677432000000000034e+00 2.668353999999999893e+00 -2.178130000000000066e-01 5.740699999999999692e-01 -1.227200000000000069e+00 5.414045999999999914e+00 -1.966080000000000050e+00 -5.510829999999999895e-01 2.895050000000000123e-01 1.654519999999999880e-01 -2.355250999999999983e+00 -2.257267999999999830e+00 4.232360000000000011e-01 2.201959000000000000e+00 -1.221406999999999909e+00 1.411486999999999936e+00 2.081980000000000164e+00 2.158899999999999986e-01 6.525389999999999802e-01 -1.289757999999999960e+00 1.476220000000000032e-01 2.663694000000000006e+00 -1.110062000000000104e+00 1.030609999999999998e-01 7.961209999999999676e-01 1.601717000000000057e+00 -8.006010000000000071e-01 1.202058000000000071e+00 4.325869999999999993e-01 -4.386289999999999911e-01 -9.207319999999999949e-01 -1.207141999999999937e+00 -3.704509999999999748e-01 4.571830000000000060e-01 7.428789999999999560e-01 1.103898000000000046e+00 -2.464485999999999954e+00 1.917100000000000054e-02 -5.297720000000000207e-01 -1.217619999999999925e+00 7.361699999999999910e-01 1.360255999999999910e+00 -2.280979999999999952e-01 5.984810000000000407e-01 -5.252320000000000322e-01 -1.763440000000000007e-01 -3.079175999999999913e+00 1.123563000000000089e+00 5.564489999999999714e-01 -1.257630000000000137e-01 7.888629999999999809e-01 -3.566990000000000105e+00 -3.309489999999999932e-01 3.638719999999999732e-01 -2.368911999999999907e+00 3.701840999999999937e+00 -1.613296999999999981e+00 -8.105800000000000505e-02 3.937284000000000006e+00 7.500419999999999865e-01 -7.437209999999999654e-01 -3.303280000000000105e-01 -2.436800000000000077e-01 -2.006793000000000049e+00 1.006936999999999971e+00 -7.127590000000000314e-01 -2.099067999999999934e+00 1.586764000000000063e+00 1.918754000000000071e+00 -3.286973999999999840e+00 2.424460999999999977e+00 -5.957360000000000433e-01 -4.704760000000000053e-01 1.326564999999999994e+00 1.880368999999999957e+00 -9.392749999999999710e-01 7.466939999999999689e-01 1.511269999999999891e+00 8.580149999999999721e-01 8.025510000000000144e-01 -8.930000000000000160e-01 -4.024059999999999859e-01 1.463878999999999930e+00 -5.239310000000000356e-01 -1.955162000000000067e+00 -4.464609999999999967e-01 -1.215527000000000024e+00 9.958759999999999835e-01 -1.124390000000000001e+00 -4.001290000000000124e-01 9.573500000000000065e-02 -1.601593999999999962e+00 3.478490000000000193e-01 -3.231280000000000263e-01 1.523611000000000049e+00 -3.448359999999999759e-01 7.573560000000000292e-01 1.214515000000000011e+00 -1.036554999999999893e+00 -6.980450000000000266e-01 2.480710000000000137e-01 -7.182800000000000296e-02 1.298886999999999903e+00 -7.889699999999999491e-01 -1.082335999999999965e+00 -1.549179000000000084e+00 -5.984260000000000135e-01 1.472320000000000018e-01 -1.430852999999999930e+00 -2.217624999999999957e+00 1.697940999999999923e+00 1.733714999999999895e+00 -1.368006000000000055e+00 7.221070000000000544e-01 6.034190000000000387e-01 6.681310000000000304e-01 2.454371000000000080e+00 -9.723260000000000236e-01 -2.049929000000000112e+00 -7.557620000000000449e-01 -1.446639000000000008e+00 -1.154438999999999993e+00 -2.243650000000000089e-01 1.813368000000000091e+00 9.484299999999999675e-02 -1.223473000000000033e+00 1.725213000000000108e+00 -1.789330000000000087e+00 2.488472999999999935e+00 -1.341090000000000060e-01 1.498677999999999955e+00 1.522709999999999897e-01 -4.632169999999999899e-01 1.508150000000000046e-01 -3.787503000000000064e+00 1.789039000000000046e+00 -1.984380000000000033e-01 -1.776712999999999987e+00 3.159667999999999921e+00 -5.777039999999999953e-01 5.033670000000000089e-01 -1.190559999999999952e-01 -8.086119999999999974e-01 -1.127494999999999914e+00 -1.044591999999999965e+00 -1.557954000000000061e+00 1.184328999999999965e+00 1.142562000000000078e+00 -8.486299999999999399e-02 3.895509999999999806e-01 5.074959999999999471e-01 4.286539999999999795e-01 -1.558022000000000018e+00 9.746160000000000379e-01 -1.275392999999999999e+00 -7.305070000000000174e-01 -3.553599999999999814e-02 -8.099650000000000460e-01 -2.837459999999999982e-01 4.199749999999999872e-01 1.545370000000000077e-01 -6.838250000000000162e-01 -4.749990000000000046e-01 9.650199999999999889e-01 -1.155586999999999920e+00 -1.298148000000000080e+00 -1.360994000000000037e+00 -1.668540000000000023e-01 -1.508710000000000051e-01 2.677246999999999932e+00 2.038156999999999996e+00 4.536290000000000044e-01 -2.114834999999999798e+00 4.880519999999999858e-01 4.489175000000000360e+00 -1.018672000000000022e+00 -1.398366999999999916e+00 -5.541329999999999867e-01 4.764369999999999994e-01 5.923859999999999681e-01 4.357099999999999862e-02 -1.000958999999999932e+00 1.961880999999999986e+00 4.940470000000000139e-01 9.512369999999999992e-01 5.004579999999999584e-01 3.711320000000000174e-01 1.750120000000000009e-01 3.215419999999999945e-01 -3.131599999999999939e-01 -6.600289999999999768e-01 -1.251727000000000034e+00 2.399459999999999926e-01 -1.272269000000000094e+00 1.450013999999999914e+00 2.080378000000000061e+00 -5.541629999999999612e-01 -5.750640000000000196e-01 -7.952289999999999637e-01 -2.199615999999999794e+00 1.898870000000000002e-01 -1.163480999999999987e+00 -4.878000000000000114e-01 2.206551999999999847e+00 -3.978000000000000286e-02 8.152500000000000302e-01 2.799400000000000222e-01 8.105999999999999317e-02 1.144397000000000109e+00 1.734809999999999963e-01 1.022661000000000042e+00 -1.668754999999999988e+00 -8.429269999999999818e-01 6.571730000000000071e-01 5.050249999999999462e-01 1.023960999999999899e+00 -5.265130000000000088e-01 3.384488999999999859e+00 -1.145863000000000076e+00 1.997268000000000043e+00 1.784330000000000083e-01 -1.160096999999999934e+00 -2.529739999999999767e-01 1.375204000000000093e+00 1.984213000000000005e+00 -3.228057000000000176e+00 -1.657742999999999967e+00 -9.833370000000000166e-01 9.812060000000000226e-01 -2.091778999999999833e+00 1.106950000000000101e+00 -9.458929999999999838e-01 6.645250000000000323e-01 -1.071050000000000058e-01 1.120428999999999897e+00 1.013417999999999930e+00 -1.185051999999999994e+00 -4.406459999999999821e-01 -1.200943000000000094e+00 -1.439996999999999971e+00 4.508090000000000153e-01 -1.269425999999999943e+00 -1.256050000000000111e+00 2.096303999999999945e+00 -1.505417999999999923e+00 1.014135000000000009e+00 1.079836000000000018e+00 1.520488999999999979e+00
9.303820000000000423e-01 -6.405389999999999695e-01 1.667594000000000021e+00 -5.987810000000000077e-01 2.256340999999999930e+00 1.374435999999999991e+00 -2.024344999999999839e+00 2.133080000000000087e+00 4.638129999999999753e-01 -1.286670999999999898e+00 1.870778999999999970e+00 -3.318300000000000138e-01 1.113790000000000058e-01 -1.415399000000000074e+00 1.508674000000000071e+00 1.774748999999999910e+00 1.549682000000000004e+00 2.487779999999999991e-01 1.049045000000000005e+00 1.866436999999999902e+00 6.151440000000000241e-01 -1.257548000000000110e+00 7.323690000000000477e-01 5.113699999999999912e-01 8.802000000000000102e-02 9.423519999999999675e-01 3.711502999999999997e+00 -1.167205999999999966e+00 4.628860000000000197e-01 -1.353658000000000028e+00 -1.541822999999999944e+00 -1.293053999999999926e+00 1.608154000000000083e+00 -1.397296000000000094e+00 1.315533000000000063e+00 -5.269719999999999960e-01 -1.893455000000000110e+00 -1.615080000000000127e-01 1.121944999999999970e+00 1.727027000000000090e+00 -3.347280000000000255e-01 -9.919019999999999504e-01 -8.853170000000000206e-01 9.734709999999999752e-01 -6.569000000000000394e-01 9.171100000000000085e-02 -7.815360000000000085e-01 1.829300000000000023e-02 9.241650000000000142e-01 -3.147218000000000071e+00 1.631515000000000049e+00 -2.504642000000000035e+00 -4.531456000000000373e+00 2.953910000000000036e+00 -3.493101999999999929e+00 -1.514107000000000092e+00 -1.892447999999999908e+00 1.871410000000000018e-01 9.664049999999999585e-01 -8.059749999999999970e-01 2.923233999999999888e+00 1.462715999999999905e+00 -3.398189999999999822e-01 1.442838000000000065e+00 1.741310000000000080e-01 -3.596359999999999779e+00 -5.162830000000000474e-01 -1.026739999999999986e+00 1.060700999999999894e+00 -2.693820000000000103e-01 -1.451848000000000027e+00 1.517163999999999957e+00 2.521499999999999853e-01 2.661390000000000144e-01 4.754169999999999785e-01 -1.068443000000000032e+00 -6.219409999999999661e-01 3.706340000000000190e-01 4.104022999999999755e+00 -2.634961000000000109e+00 1.288353999999999999e+00 -3.069525000000000059e+00 -1.597142000000000062e+00 -2.002133999999999858e+00 -1.961249999999999938e-01 -5.493609999999999882e-01 -2.438733000000000040e+00 1.316329000000000082e+00 5.503299999999999859e-02 7.697260000000000213e-01 2.847538000000000125e+00 6.430890000000000217e-01 -2.295335000000000125e+00 2.558584999999999887e+00 1.391594999999999915e+00 -1.583468000000000098e+00 7.433999999999999636e-03 1.338988999999999985e+00 1.529230000000000089e+00 -6.873200000000000143e-02 8.994769999999999710e-01 -2.923861000000000043e+00 3.655379999999999741e-01 -2.085118000000000027e+00 8.996129999999999960e-01 1.312308000000000030e+00 2.531175000000000175e+00 6.113750000000000018e-01 -7.129860000000000086e-01 -1.942509000000000041e+00 -3.103628000000000053e+00 -1.017964000000000091e+00 -8.440849999999999742e-01 -1.662954999999999961e+00 -2.876400000000000137e-02 -5.989419999999999744e-01 3.759819999999999829e-01 -1.193486999999999965e+00 -1.961110000000000075e-01 -6.279439999999999467e-01 -1.699135000000000062e+00 2.169610000000000039e+00 7.911359999999999504e-01 -2.588684999999999903e+00 -6.322609999999999619e-01 2.088147999999999893e+00 5.913070000000000270e-01 5.540429999999999522e-01 -3.291268000000000082e+00 -1.373259999999999925e+00 8.951940000000000452e-01 1.590915999999999997e+00 2.072583999999999982e+00 2.042549000000000170e+00 2.464790000000000036e-01 -1.591026999999999969e+00 1.930790000000000006e-01 -1.393914000000000097e+00 1.963276999999999939e+00 7.075580000000000203e-01 2.563639999999999808e-01 -2.072462999999999944e+00 1.202949000000000046e+00 2.483569999999999833e+00 -4.410049999999999804e-01 1.900862000000000052e+00 -1.523682999999999899e+00 4.156299999999999994e-01 3.160370000000000124e-01 -1.492159999999999875e-01 -3.642349999999999755e-01 6.805379999999999763e-01 3.601809999999999734e-01 -1.338954999999999895e+00 -1.497489999999999988e+00 3.221458000000000155e+00 3.650050000000000239e-01 -8.123150000000000093e-01 1.145690000000000042e-01 -4.896400000000000058e-02 -1.412199999999999914e-02 4.234330000000000038e-01 -7.318800000000000305e-02 5.686999999999999833e-01 -1.413729000000000013e+00 -3.431609999999999938e-01 2.334573999999999927e+00 -1.202050000000000063e-01 -8.551450000000000440e-01 9.188910000000000133e-01 -3.328308999999999962e+00 -3.361060000000000159e-01 -1.968331000000000053e+00 5.387700000000000128e-02 -8.867300000000000182e-01 -5.040251999999999732e+00 -3.288199000000000094e+00 1.124279000000000028e+00 2.910368000000000066e+00 -5.213659999999999961e-01 -6.272739999999999982e-01 -2.840509999999999979e-01 1.905038999999999927e+00 -2.161712000000000078e+00 1.279055000000000053e+00 -2.359677000000000024e+00 -4.625949999999999784e-01 -6.073140000000000205e-01 -1.457127000000000061e+00 8.068039999999999656e-01 8.001329999999999831e-01 2.195375999999999994e+00 -2.589429999999999787e-01 1.334805000000000019e+00 -3.434849999999999959e+00 4.077107999999999954e+00 -3.371917999999999971e+00 2.075206999999999802e+00 9.760900000000000132e-02 1.180260000000000059e-01 -9.322949999999999848e-01 2.595302000000000220e+00 -2.206139999999999990e+00 1.634778000000000064e+00 5.461129999999999596e-01 -1.174460999999999977e+00 -5.375400000000000317e-02 -1.874603999999999937e+00 5.649279999999999857e-01 1.731467000000000089e+00 7.120600000000000540e-02 -1.658429999999999904e-01 1.165802999999999923e+00 3.483227999999999991e+00 -2.975038000000000071e+00 9.119920000000000249e-01 -1.423149999999999971e-01 6.694879999999999720e-01 -5.815620000000000234e-01 1.129545999999999939e+00 1.285794000000000104e+00 1.456504000000000021e+00 -1.303630000000000067e-01 -5.087513999999999648e+00 3.833012999999999781e+00 8.117769999999999708e-01 9.219199999999999617e-01 -2.277359999999999940e-01 2.172850000000000059e-01 7.507070000000000132e-01 4.283089999999999953e-01 -1.506823000000000023e+00 -8.906749999999999945e-01 7.382319999999999993e-01 7.776760000000000339e-01 -1.374635999999999969e+00 -3.113659999999999761e-01 1.315277999999999947e+00 -2.517079999999999873e-01 1.821755999999999931e+00 -3.158224000000000142e+00 2.180896999999999863e+00 -3.178450000000000220e+00 1.128066000000000013e+00 1.948577000000000004e+00 1.304294999999999982e+00 9.200939999999999674e-01 -1.900036999999999976e+00 -8.975389999999999757e-01 -4.402240000000000042e-01 3.436609999999999943e-01 -1.864967999999999959e+00 -9.290460000000000385e-01 2.289069999999999994e-01 -1.484023000000000092e+00 8.300450000000000328e-01 -7.734839999999999494e-01 4.840110000000000245e-01 -9.455919999999999881e-01 6.176080000000000458e-01 -3.102110999999999841e+00 1.897156000000000065e+00 1.582918000000000047e+00 8.994640000000000413e-01 7.733800000000000396e-02 2.861127999999999894e+00 -7.985200000000000076e-01 3.302329999999999988e-01 -2.084046999999999983e+00 8.725209999999999910e-01 5.186380000000000434e-01 1.448935000000000084e+00 -2.929519999999999902e-01 6.654689999999999772e-01 3.158190000000000164e-01 1.719522999999999913e+00
1.838249999999999884e-01 -8.892339999999999689e-01 2.406394000000000144e+00 1.903169999999999862e-01 1.462870000000000004e-01 2.108347999999999889e+00 -8.638500000000000345e-02 -1.178781999999999996e+00 -3.926399999999999890e-01 9.109899999999999942e-02 1.831231999999999971e+00 8.559520000000000461e-01 7.068870000000000431e-01 -1.938339000000000034e+00 2.420789999999999886e-01 -8.543000000000000246e-03 -2.521692999999999962e+00 1.128400999999999987e+00 -6.361569999999999725e-01 1.293660000000000088e-01 -9.168709999999999916e-01 3.655234999999999790e+00 8.234409999999999785e-01 4.069599999999999884e-01 -1.380470000000000030e-01 -4.645050000000000012e-01 1.005023000000000000e+00 -1.219308999999999976e+00 1.697569000000000106e+00 1.155348000000000042e+00 -1.451621000000000050e+00 1.686419999999999864e-01 1.493638999999999939e+00 1.658107999999999915e+00 -1.254609999999999892e-01 -1.562469999999999970e-01 2.378657000000000021e+00 2.037399999999999975e-02 -3.179919999999999969e-01 -9.344000000000000083e-01 -1.930906999999999929e+00 2.272346999999999895e+00 1.954849999999999977e+00 2.241906999999999872e+00 2.838483999999999785e+00 1.494089000000000000e+00 5.179669999999999552e-01 9.452599999999999891e-02 2.256539999999999935e-01 -5.691700000000000231e-02 4.860510000000000108e-01 1.450944000000000011e+00 -5.306493999999999822e+00 1.822232999999999992e+00 1.657107000000000108e+00 -1.892359999999999876e-01 -5.863089999999999691e-01 -3.177022000000000013e+00 -2.937609999999999943e-01 9.536210000000000520e-01 3.938840000000000119e-01 -9.993290000000000228e-01 -9.058999999999999345e-03 2.163358999999999810e+00 -1.797695000000000043e+00 -1.807295000000000096e+00 -1.945055999999999896e+00 7.768829999999999902e-01 1.743300000000000072e+00 -4.365332000000000434e+00 -4.231559999999999766e-01 4.162259999999999849e-01 5.910100000000000353e-01 1.152967000000000075e+00 -7.915480000000000294e-01 -1.010796999999999946e+00 9.276399999999999924e-02 -2.189721000000000029e+00 -2.353638000000000119e+00 -1.282663000000000109e+00 3.857430000000000025e-01 1.422158000000000033e+00 -8.090169999999999861e-01 1.729627999999999943e+00 1.012331000000000092e+00 -9.994720000000000271e-01 9.115469999999999962e-01 -1.550243000000000038e+00 2.326598999999999862e+00 -3.945298000000000194e+00 -7.832810000000000050e-01 3.100280000000000258e-01 7.952299999999999924e-01 -1.006067999999999962e+00 -1.653156999999999988e+00 -1.530221000000000053e+00 9.373780000000000445e-01 5.650499999999999967e-02 6.963529999999999998e-01 -1.222623999999999933e+00 2.342827000000000215e+00 -2.452669000000000210e+00 -3.578290000000000082e-01 1.626819999999999933e+00 8.347759999999999625e-01 2.832456999999999780e+00 -1.656179999999999874e-01 2.135574999999999779e+00 1.820753999999999984e+00 2.497177000000000202e+00 -1.679164000000000101e+00 -1.044000000000000067e-01 1.145313000000000025e+00 1.579539000000000026e+00 -1.981260000000000021e+00 8.401189999999999491e-01 1.193718000000000057e+00 3.421346000000000220e+00 -1.259999999999999998e-04 -2.275183999999999873e+00 1.393099999999999894e-01 3.850529999999999786e-01 -6.834869999999999557e-01 -8.683370000000000255e-01 8.838819999999999455e-01 9.263100000000000500e-02 1.292359000000000036e+00 1.220674999999999955e+00 -5.149080000000000323e-01 -1.145443999999999907e+00 -6.703550000000000342e-01 -1.594009999999999927e+00 1.320560000000000067e-01 1.840737000000000068e+00 1.793140000000000012e-01 4.736179999999999835e-01 -9.436300000000000243e-02 6.569939999999999669e-01 3.407810000000000006e-01 -5.845850000000000213e-01 1.324271999999999894e+00 1.023759000000000086e+00 1.411686999999999914e+00 -4.139240000000000141e-01 1.750137999999999971e+00 3.533970000000000167e-01 1.036855000000000082e+00 2.052804000000000073e+00 -8.049479999999999968e-01 -4.071730000000000071e-01 2.979589999999999739e-01 -1.194282000000000066e+00 -6.836109999999999687e-01 -2.926848000000000116e+00 -6.777619999999999756e-01 1.086105000000000098e+00 4.769199999999999828e-02 -1.003344999999999931e+00 -1.348410000000000108e+00 -2.038459999999999994e-01 -1.239403999999999950e+00 2.746089999999999920e-01 3.257410999999999834e+00 -2.047680999999999862e+00 -1.803347000000000033e+00 -7.020009999999999861e-01 1.171268999999999894e+00 -1.756847000000000047e+00 1.331584000000000101e+00 1.262100999999999917e+00 7.319400000000000350e-01 -1.423310000000000131e-01 1.030975999999999893e+00 1.528245000000000076e+00 2.304248999999999992e+00 -1.141313999999999940e+00 -7.205049999999999510e-01 -1.097466000000000053e+00 -5.355459999999999665e-01 -1.494621999999999895e+00 -2.767970000000000153e-01 -5.170200000000000351e-01 -6.887000000000000066e-02 -1.852918000000000065e+00 5.446609999999999507e-01 -1.940340000000000120e-01 7.706060000000000132e-01 -1.043120000000000019e-01 3.981890000000000152e-01 -3.144029999999999880e-01 -1.706140999999999908e+00 9.216339999999999533e-01 -2.739120000000000221e+00 -2.164715999999999863e+00 -2.570990000000000220e-01 -2.343119999999999870e+00 -1.845887999999999973e+00 1.737165000000000070e+00 -1.895789999999999975e-01 -5.073000000000000252e-03 -4.969640000000000168e-01 6.670009999999999550e-01 1.256952999999999987e+00 -9.230329999999999924e-01 -1.610670999999999964e+00 5.298079999999999457e-01 9.616350000000000176e-01 -5.484250000000000513e-01 9.473209999999999686e-01 4.156489999999999907e-01 -2.551890999999999909e+00 1.332068000000000030e+00 9.973419999999999508e-01 7.848000000000000531e-01 -4.270619999999999972e-01 1.738659999999999928e-01 -3.967539999999999956e-01 -1.398663999999999907e+00 -1.622459000000000096e+00 2.267192999999999792e+00 2.599270000000000191e-01 -2.992159999999999820e-01 -1.788918000000000008e+00 1.381310000000000038e-01 -9.629959999999999631e-01 -2.982600000000000251e-01 3.857809999999999850e-01 -6.008449999999999624e-01 -4.613070000000000226e-01 -1.731921999999999962e+00 7.413849999999999607e-01 -4.495680000000000232e-01 1.465662999999999938e+00 -8.202519999999999811e-01 1.205192999999999959e+00 -2.219656000000000073e+00 1.717877000000000098e+00 -1.553921000000000108e+00 1.159416999999999920e+00 1.876309999999999922e-01 -2.148705999999999783e+00 6.745910000000000517e-01 -1.653764000000000012e+00 -1.728452000000000099e+00 3.550688000000000066e+00 -2.529783999999999811e+00 1.070940999999999921e+00 -3.002300000000000108e-02 -7.173739999999999561e-01 -1.146584000000000048e+00 -1.246345999999999954e+00 1.382962999999999942e+00 2.571769999999999889e-01 2.825599999999999987e-02 -7.629639999999999755e-01 -2.368429999999999980e-01 -5.978800000000000087e-02 -1.418954999999999966e+00 1.432816000000000090e+00 3.430549999999999988e-01 1.237549999999999928e+00 7.532579999999999831e-01 8.276080000000000103e-01 -1.816230000000000011e+00 -1.223319999999999963e-01 1.199403999999999915e+00 -1.158840000000000009e-01 -2.179449999999999998e-01 1.439270000000000049e+00 -2.918594000000000133e+00 1.354284999999999961e+00 8.618999999999999925e-03 -5.262679999999999580e-01 -8.536380000000000079e-01 7.997100000000000042e-02 -2.982440000000000091e-01
1.299971999999999905e+00 -9.724469999999999503e-01 1.887515000000000054e+00 6.211020000000000429e-01 -2.695009999999999906e+00 4.307520000000000238e-01 1.026480000000000059e+00 -1.667999000000000009e+00 -1.344260000000000010e+00 -3.886330000000000062e-01 -5.395759999999999446e-01 6.340750000000000552e-01 -3.798925000000000107e+00 -1.491073000000000093e+00 2.814864000000000033e+00 -1.506702999999999903e+00 -3.820319999999999827e-01 -9.277819999999999956e-01 -1.281770000000000076e+00 -1.626209999999999933e+00 -1.859750000000000014e+00 1.597128000000000103e+00 -2.752327000000000190e+00 3.281194000000000166e+00 4.336324000000000289e+00 -1.220412999999999970e+00 -2.556621999999999950e+00 -7.818999999999999562e-03 2.449108999999999980e+00 -1.023093000000000030e+00 2.734610000000000096e-01 1.012515000000000054e+00 2.422980000000000134e-01 -2.478400999999999854e+00 -2.182151000000000174e+00 -1.295403000000000082e+00 5.628520000000000190e-01 1.293992000000000031e+00 2.964449999999999807e+00 -1.590762000000000009e+00 1.092994999999999939e+00 4.316889999999999894e-01 3.700089999999999768e-01 4.085792999999999786e+00 2.777285000000000004e+00 1.422646000000000077e+00 6.365169999999999995e-01 -2.146030999999999800e+00 1.132387000000000032e+00 1.066575000000000051e+00 1.243929000000000062e+00 -1.298980999999999941e+00 -1.627040999999999960e+00 -1.759449000000000041e+00 -7.123869999999999925e-01 -4.414790000000000103e-01 1.244664999999999910e+00 3.256410999999999945e+00 -3.857258999999999993e+00 -1.445327000000000028e+00 -4.194302999999999670e+00 -8.713520000000000154e-01 3.839876999999999985e+00 -7.594800000000000439e-01 -3.259730000000000127e-01 -7.751789999999999514e-01 2.234909999999999952e-01 -4.484020000000000228e-01 -1.843069999999999986e-01 4.036449999999999760e-01 5.168449999999999989e-01 -1.662781000000000065e+00 1.743657999999999930e+00 1.245262000000000091e+00 3.050581000000000209e+00 5.796820000000000306e-01 -2.955386999999999986e+00 -1.437005000000000088e+00 3.132756000000000096e+00 -1.413640999999999925e+00 9.012219999999999676e-01 -1.763838000000000017e+00 1.663686999999999916e+00 -2.407182000000000155e+00 1.946696999999999900e+00 2.670246000000000119e+00 -8.254879999999999995e-01 -7.745870000000000255e-01 -2.155733000000000121e+00 5.217272999999999605e+00 -8.170499999999999985e-02 7.797009999999999774e-01 1.413379999999999914e-01 2.381854000000000138e+00 2.408351000000000131e+00 -3.791100000000000025e-01 5.479180000000000161e-01 2.281271999999999966e+00 -3.253499999999999726e-01 -2.042562999999999906e+00 1.095873000000000097e+00 5.998699999999999866e-02 -1.814275000000000082e+00 1.108908000000000005e+00 1.753034999999999899e+00 -3.342795999999999879e+00 3.932309999999999972e-01 -2.014127999999999918e+00 -1.279314999999999980e+00 -2.625469999999999748e-01 -3.324806999999999846e+00 3.963400000000000256e-02 8.352899999999999769e-01 1.443100000000000049e+00 -5.614810000000000079e-01 -1.459945000000000048e+00 1.142111000000000098e+00 -2.037253000000000203e+00 2.210093999999999781e+00 -6.338740000000000485e-01 -1.138886000000000065e+00 2.387970000000000093e-01 -8.906999999999999640e-02 -1.157343999999999928e+00 -9.356240000000000112e-01 -2.090857000000000188e+00 -5.927179999999999671e-01 -1.904069999999999929e+00 -1.053710000000000063e-01 2.638837999999999795e+00 5.361679999999999779e-01 -1.368476999999999943e+00 -1.310939999999999994e+00 2.285229000000000177e+00 1.034888000000000030e+00 2.551499999999999949e-02 3.984200000000000241e-02 -2.565029999999999810e-01 2.940474000000000032e+00 -2.550529999999999742e-01 1.338786000000000032e+00 2.492850000000000066e-01 6.650970000000000493e-01 -4.283299999999999885e-01 -2.575674999999999937e+00 -1.906177999999999928e+00 5.109600000000000253e-02 8.898409999999999931e-01 2.032849999999999935e-01 1.211348000000000091e+00 -9.709600000000000175e-02 -9.400659999999999572e-01 5.296710000000000029e-01 1.814222999999999919e+00 1.013343000000000105e+00 7.723940000000000250e-01 2.398188999999999904e+00 -8.238569999999999505e-01 -2.046391999999999989e+00 2.597417999999999783e+00 -3.387090000000000156e+00 1.192857000000000056e+00 -1.532520000000000104e+00 3.615965000000000096e+00 -1.090214000000000016e+00 -2.061552999999999969e+00 -2.185970000000000135e-01 1.498879999999999990e+00 2.035123000000000015e+00 3.869969999999999799e-01 -1.331261999999999945e+00 4.699929999999999941e-01 3.382629999999999804e-01 -1.907079999999999886e-01 1.479970000000000008e+00 2.409673999999999872e+00 -6.438770000000000326e-01 -5.074400000000000022e-01 -6.432149999999999812e-01 -8.741330000000000489e-01 -4.377064999999999984e+00 6.904799999999999827e-01 -2.090120999999999896e+00 -1.006947000000000036e+00 5.037900000000000017e-02 -9.165510000000000046e-01 -1.599436000000000080e+00 -1.674803999999999959e+00 2.271831999999999852e+00 2.316492000000000218e+00 -2.117140000000000022e+00 -2.241264999999999841e+00 1.680449999999999999e-01 1.073569999999999941e-01 8.079899999999999582e-02 5.319899999999999629e-01 -1.461060000000000136e-01 -8.466979999999999507e-01 6.143199999999999772e-01 -6.760620000000000518e-01 5.596600000000000186e-02 2.329990000000000006e+00 -1.093245000000000022e+00 -1.474644000000000066e+00 -8.244810000000000194e-01 -1.814810000000000034e+00 2.764249999999999763e-01 2.409550999999999998e+00 3.045974999999999877e+00 9.960130000000000372e-01 -7.359989999999999588e-01 3.233750000000000235e-01 8.820879999999999832e-01 -2.525729999999999920e-01 1.922689999999999955e-01 -1.439886999999999917e+00 3.210596999999999923e+00 1.428784000000000054e+00 6.198000000000000384e-03 -1.113793999999999951e+00 -5.132640000000000535e-01 -1.205409999999999954e-01 -1.873613999999999891e+00 4.811814000000000036e+00 2.990533000000000108e+00 -9.384890000000000176e-01 7.320000000000000118e-04 -1.825163000000000091e+00 -6.224709999999999965e-01 -1.581760000000000055e+00 -1.918771000000000004e+00 1.266378999999999921e+00 -1.766409999999999925e-01 -9.584169999999999634e-01 -1.736113000000000017e+00 -1.028896000000000033e+00 -7.804980000000000251e-01 -7.940770000000000328e-01 -3.279699999999999838e-01 -9.379250000000000087e-01 -8.801759999999999584e-01 5.600739999999999608e-01 1.046362000000000014e+00 7.016160000000000174e-01 1.442844999999999933e+00 -2.236059999999999992e-01 -7.670740000000000336e-01 1.422015999999999947e+00 -5.342869999999999564e-01 -9.924739999999999673e-01 -9.982720000000000482e-01 1.959966000000000097e+00 2.120537999999999812e+00 4.748129999999999851e-01 -2.060433000000000181e+00 -1.297599999999999969e-02 -3.675530000000000186e-01 2.172375000000000167e+00 9.833250000000000046e-01 5.332400000000000334e-02 -1.050375999999999976e+00 1.560777000000000081e+00 3.804560000000000164e-01 -1.275899999999999951e-02 -3.051860000000000128e-01 -2.764039999999999830e-01 1.359758000000000022e+00 6.604119999999999990e-01 -5.623209999999999598e-01 -7.734860000000000069e-01 -2.906590000000000007e-01 -1.790051000000000059e+00 1.068718999999999975e+00 -1.497252999999999945e+00 1.943435000000000024e+00 7.493589999999999973e-01