-9.569994985824218118e-04 2.602812339428757671e+00 2.628049136064499081e+00 -1.048365819519540224e-03 2.602914013942491334e+00 7.845939134772261347e+00 1.002236591734043358e+01 7.619115113224952829e+00 2.539877233088251973e+00 1.002226455097667390e+01 7.619216754580556916e+00 7.757777231698218756e+00 5.061576204057108619e+00 2.625279508722983213e+00 2.636718599718605116e+00 5.061484804399859705e+00 2.625391183261601924e+00 7.854618598345916247e+00 5.005506340534901177e+00 7.694631075165101031e+00 2.628017432242124141e+00 5.005414974213963752e+00 7.694732749678835582e+00 7.845907430949885963e+00 2.519877076368821189e+00 6.650721012999950832e-02 2.636664177477223259e+00 2.519775676864872693e+00 6.661885135024105120e-02 7.854554176006741883e+00 2.508429901165604825e+00 5.129107057054489438e+00 2.627933501672399697e+00 2.508338501508354579e+00 5.129218731593107705e+00 7.845833500299711716e+00 7.582390815693410779e+00 8.886417462041699966e-02 2.627993641822075066e+00 7.582299416134221204e+00 8.897584907891134542e-02 7.845883640449387464e+00 7.623798362477307577e+00 5.204519355548300474e+00 2.539843059208862996e+00 7.623706962820057775e+00 5.204631030086918742e+00 7.757743057836174572e+00 2.521458608275922053e+00 2.606657444034327753e+00 5.240223840506403441e+00 2.521560007779871437e+00 2.606545802814085988e+00 2.233384197688479886e-02 2.474279376650231566e+00 7.696918608906035075e+00 5.223072592675633175e+00 2.474370776307481812e+00 7.696806934367415920e+00 5.172594048321128325e-03 7.563252194487715130e+00 2.620025419998017302e+00 5.223013173690160826e+00 7.563353560851473922e+00 2.619923778642412326e+00 5.113175080194441550e-03 7.544146636507440107e+00 7.682269417639493447e+00 5.165532425633823976e+00 7.544045237003491167e+00 7.682381058859735212e+00 1.038342242416334216e+01 1.819076158182984099e-02 7.168287738764253514e-02 5.222969604447502689e+00 1.829216108577926686e-02 7.157123616740097838e-02 5.079605917984051679e-03 -3.014973031578132776e-02 5.141379744707348820e+00 5.165528509995359840e+00 -3.024109673477937479e-02 5.141481419301206834e+00 1.038342850870312262e+01 5.060013877639494062e+00 8.509122823116467560e-02 5.240128937600089465e+00 5.060105277296744752e+00 8.497955369254638069e-02 2.222893897277772313e-02 5.039696169283495841e+00 5.126801408003104576e+00 5.222988342185596267e+00 5.039797568885505896e+00 5.126689766702739348e+00 5.088343656079037831e-03 3.768454219261289762e+00 3.881326529785684265e+00 3.655265855380920303e+00 3.768362819702100630e+00 3.881438204244178625e+00 8.873155854008233590e+00 3.745750776475206045e+00 8.942759026707934211e+00 3.655275078550065171e+00 3.745659376916016914e+00 8.942870701166429015e+00 8.873165077177377569e+00 8.839703714617289876e+00 3.881052006681512623e+00 3.597035586717858724e+00 8.839612314960040962e+00 3.881163681220130890e+00 8.814935585345171631e+00 8.806688933070937253e+00 8.942870232404699138e+00 3.597014705682447300e+00 8.806597533413688339e+00 8.942981906943318293e+00 8.814914704309758875e+00 3.790751593325073721e+00 1.345910208659321317e+00 1.613216388625542619e+00 3.790660226906075625e+00 1.346011883253178887e+00 6.831116387333303841e+00 3.757013231476015847e+00 6.411865907454393998e+00 1.595205467342122985e+00 3.756911831874005347e+00 6.411977548754759226e+00 6.813105465871640121e+00 8.856860058104320643e+00 1.345818922086720493e+00 1.595186068084119668e+00 8.856768691783381442e+00 1.345920596600454378e+00 6.813076066791881047e+00 3.790855515028014988e+00 1.346061594535862049e+00 4.228476388641333905e+00 3.790764115468825857e+00 1.346173268994356409e+00 9.446366387268644971e+00 3.757136921568641430e+00 6.412067412893796892e+00 4.217125467150721008e+00 3.757045555149643334e+00 6.412169087487654018e+00 9.435025465858482008e+00 8.856923814710706111e+00 1.346000228447457037e+00 4.217136067466849880e+00 8.856832448389766910e+00 1.346101902961191144e+00 9.435026066174613035e+00 8.823176062062554337e+00 6.411935450708790007e+00 4.143785146250971607e+00 8.823084662405303646e+00 6.412047125247409163e+00 9.361685144878283182e+00 3.760150927865733017e+00 3.886958007454954789e+00 1.050555728627606822e+00 3.760059528306543886e+00 3.887069681913449148e+00 6.268445727254919220e+00 3.753956282952767065e+00 8.936745312329700042e+00 1.050555206989435275e+00 3.753864883295516819e+00 8.936856986868319197e+00 6.268455205616747072e+00 8.772590231361460766e+00 3.985928552618470899e+00 9.916840880755736221e-01 8.772498865040523341e+00 3.986030227132204562e+00 6.209574086783336000e+00 8.873734710271355297e+00 8.837591539328149892e+00 9.916562064651737174e-01 8.873633310669344354e+00 8.837703180628514232e+00 6.209556204994690631e+00 1.255469471285105110e+00 1.351369832672136839e+00 3.655301483833417020e+00 1.255378071627855086e+00 1.351481507210755106e+00 8.873201482460729039e+00 1.221928420720803876e+00 6.412235835934638750e+00 3.597110605262281879e+00 1.221837021161614523e+00 6.412347510393133554e+00 8.815000603889593833e+00 6.326173631873670544e+00 1.340493906464390372e+00 3.655251294770051285e+00 6.326082232314480969e+00 1.340605580922884288e+00 8.873141293397363683e+00 6.292268481077964104e+00 6.411618755868279784e+00 3.597020330430580337e+00 6.292167081574015164e+00 6.411730397088521549e+00 8.814910328960099406e+00 1.215144331848895698e+00 3.904243128805584551e+00 1.570500633603784113e+00 1.215042932246885421e+00 3.904354770105950223e+00 6.788400632133302359e+00 1.215313424548416288e+00 8.952821837842456887e+00 1.602680184055340851e+00 1.215212024946406011e+00 8.952933479142823003e+00 6.820580182584857987e+00 6.298803456845962323e+00 3.870740396534372074e+00 1.602630752875497722e+00 6.298702090482204419e+00 3.870842037889976606e+00 6.820530751485464727e+00 6.298963346519857787e+00 8.919268557251912810e+00 1.570490303636664642e+00 6.298871946862607984e+00 8.919380231790530189e+00 6.788390302263976217e+00 1.256193763730356627e+00 3.863700366064718672e+00 4.183331361192455411e+00 1.256092364128346572e+00 3.863812007365084344e+00 9.401231359721972325e+00 1.249562577979263178e+00 8.987556913090905653e+00 4.218630241804294023e+00 1.249461178475313572e+00 8.987668554311145641e+00 9.436520240333813092e+00 6.264602233887182514e+00 3.836277572449785289e+00 4.218580693834658391e+00 6.264500834285172459e+00 3.836389213750150962e+00 9.436480692364177969e+00 6.257971773488353762e+00 8.960123554016337977e+00 4.183299574532605369e+00 6.257880407069356998e+00 8.960225228610195103e+00 9.401199573240367258e+00 1.249578355532318552e+00 1.359359341017289946e+00 1.050591361840647053e+00 1.249486989113320679e+00 1.359461015611148182e+00 6.268491360548408053e+00 1.116583648446734855e+00 6.478325093489968545e+00 9.917590424995305076e-01 1.116492248887545724e+00 6.478436767948462460e+00 6.209649041126843017e+00 6.332056795921982228e+00 1.332172460358474364e+00 1.050541418926776993e+00 6.331955396319972174e+00 1.332284101658839814e+00 6.268441417456294573e+00 6.397575380939640510e+00 6.345177450611918957e+00 9.916618952249073304e-01 6.397483981282390708e+00 6.345289125150537224e+00 6.209561893852218795e+00
-6.403934311152051188e-04 2.603833398940768262e+00 2.628239130988050398e+00 -9.969902839680183236e-05 2.603317168084941624e+00 7.845779140844731714e+00 1.002145698442233268e+01 7.618792091593597604e+00 2.540037226763361744e+00 1.002215362562017908e+01 7.619496383567120112e+00 7.757297228369937514e+00 5.061646605667404764e+00 2.625159739489660637e+00 2.636398601368582284e+00 5.060537009550101217e+00 2.624728024225586598e+00 7.853988594365194587e+00 5.005466949831097523e+00 7.694450934392766506e+00 2.626917433299126525e+00 5.006374663981089768e+00 7.694825944781260141e+00 7.846497439614024572e+00 2.519562070934679987e+00 6.500614902291729225e-02 2.635944186415288382e+00 2.518923091820357563e+00 6.739601946647436059e-02 7.854264161419211909e+00 2.508528427931782545e+00 5.129547395339368876e+00 2.628973499110481171e+00 2.508887703105584954e+00 5.129460556448287356e+00 7.845593503747616992e+00 7.582620549007185851e+00 8.894493825769508866e-02 2.627943643427747222e+00 7.582997976746706392e+00 8.940817850923947485e-02 7.846523643835594974e+00 7.623937440740926164e+00 5.204799811404861032e+00 2.538853058325474255e+00 7.624015971412696935e+00 5.204932052726148228e+00 7.756983058454367530e+00 2.521059337314312643e+00 2.606436119325063583e+00 5.240673838364491743e+00 2.520800600558593896e+00 2.606363285633457316e+00 2.332383599254649401e-02 2.474462639280512910e+00 7.695939207480127386e+00 5.222432602320023598e+00 2.473491982746755191e+00 7.696444007303472112e+00 4.662588338664387828e-03 7.562642424543384756e+00 2.619953397738834955e+00 5.223623168287820029e+00 7.562961735784510253e+00 2.620472478591262977e+00 5.023166841513361514e-03 7.543929106080784486e+00 7.681528683354626352e+00 5.164642429435684967e+00 7.543624476804980716e+00 7.682609659980129457e+00 1.038322241820567093e+01 1.841734030155330396e-02 7.271363329332114489e-02 5.222609598410501874e+00 1.802876937654001102e-02 7.259036866198935456e-02 5.369595169471238702e-03 -2.968773042263043657e-02 5.140781270331062025e+00 5.164698519320920944e+00 -3.164933486931614803e-02 5.140946741804802933e+00 1.038419849917791815e+01 5.060493673499196987e+00 8.515282501846450913e-02 5.240338941811491402e+00 5.059535785393147300e+00 8.482765473267331324e-02 2.157893460530982063e-02 5.039045404079600665e+00 5.127029249771617891e+00 5.223428333978609395e+00 5.039767271672053184e+00 5.126779665048593948e+00 4.908342638666227109e-03 3.769879542677736950e+00 3.879731247719298448e+00 3.653925882139696490e+00 3.770229860051097504e+00 3.879314422122036365e+00 8.876125889333422947e+00 3.744980380010883181e+00 8.942886441004690212e+00 3.652075069974335619e+00 3.741219869915922036e+00 8.942715941591576012e+00 8.872845034883130921e+00 8.840321267933553884e+00 3.881784077202019123e+00 3.598755586908143567e+00 8.839443897709143627e+00 3.880693102741301193e+00 8.812935587463956111e+00 8.807071827277939136e+00 8.948011549165855172e+00 3.598964668243036513e+00 8.804601080990460460e+00 8.944925267016493819e+00 8.813074669161245822e+00 3.793398625189048357e+00 1.346809008034041799e+00 1.612736407381007764e+00 3.787032486602321946e+00 1.348329851034810511e+00 6.832726333187000733e+00 3.757620697390378073e+00 6.412627934555434450e+00 1.595675467193365060e+00 3.759603050654225509e+00 6.411616488763789867e+00 6.812715495154905376e+00 8.852412196896414898e+00 1.345174118038784394e+00 1.593126029634240881e+00 8.855970270363835439e+00 1.345447930361367117e+00 6.811856062749577667e+00 3.791838307613811576e+00 1.345234824419936137e+00 4.224476404902777205e+00 3.791024229824940139e+00 1.346134147431579109e+00 9.448116390132950571e+00 3.756520162502402727e+00 6.408085333818301699e+00 4.216245493008646150e+00 3.753156108414028136e+00 6.408986146006074414e+00 9.435515453221231752e+00 8.854788012136124209e+00 1.347743137109716827e+00 4.216896032558079099e+00 8.856634092187221086e+00 1.345601256662407597e+00 9.436986068241045800e+00 8.822849030331411768e+00 6.411054324815095740e+00 4.139555150103658931e+00 8.819939764469479471e+00 6.410496691507682421e+00 9.365155126462088475e+00 3.761483271025297448e+00 3.886262412539223554e+00 1.048125747265873819e+00 3.757433730988291032e+00 3.888810959818099100e+00 6.267945687554260736e+00 3.754924957348733106e+00 8.934148486716525284e+00 1.046705237294831337e+00 3.754825645868542061e+00 8.933620163521680979e+00 6.268595240972794080e+00 8.773714533243627045e+00 3.987652278528102112e+00 9.891240852892030366e-01 8.772940964428835642e+00 3.982391674000427262e+00 6.209264120272104392e+00 8.872776432000039293e+00 8.837068361103458614e+00 9.928762012602169174e-01 8.873489089395805607e+00 8.838962736135803411e+00 6.213026193488665250e+00 1.257744071940689379e+00 1.353007376590434019e+00 3.652131493017458208e+00 1.253169615835310724e+00 1.351014161614064735e+00 8.872891464548938956e+00 1.222918966769949600e+00 6.412069138517844102e+00 3.598490616311424084e+00 1.217245853041624137e+00 6.409682236797435095e+00 8.815170580223414376e+00 6.324859136550485594e+00 1.341839557375396508e+00 3.656821271098227299e+00 6.322924115855156124e+00 1.343045089567542094e+00 8.872171242882195941e+00 6.294292060337187245e+00 6.410545475400348359e+00 3.596950358873527875e+00 6.290086055519612529e+00 6.412033487668564291e+00 8.815640306124942427e+00 1.215125256808945231e+00 3.900953055918023438e+00 1.571580659778184286e+00 1.212163954655159470e+00 3.907055204219632039e+00 6.786960582264719655e+00 1.213771763556147354e+00 8.950306709874016775e+00 1.603940189089971380e+00 1.214466455402265055e+00 8.954611001738729925e+00 6.819520161832675065e+00 6.295243832754111146e+00 3.873628584700987698e+00 1.603100694828226258e+00 6.297860802422873938e+00 3.868219228072738325e+00 6.820650764250714815e+00 6.298882705731356779e+00 8.919468271011350424e+00 1.568090301245515628e+00 6.298590418567178162e+00 8.919839299299548330e+00 6.788480295825061184e+00 1.256103358339593301e+00 3.866820111928829462e+00 4.186951335309584188e+00 1.254763403920318821e+00 3.863497586707286047e+00 9.401021349209312206e+00 1.246888273386647095e+00 8.985838017249085041e+00 4.218950229352315340e+00 1.251881572234937012e+00 8.990556631803118037e+00 9.438580240928164500e+00 6.260510221164143019e+00 3.833863968279497936e+00 4.219860673046857080e+00 6.265480603754608246e+00 3.836462464542703454e+00 9.435710701384909527e+00 6.258150117125244272e+00 8.966644169624881755e+00 4.181659524035578279e+00 6.260935664058322025e+00 8.961655396799468321e+00 9.401839591741477875e+00 1.252201421528312375e+00 1.358438063310310584e+00 1.051681394944403714e+00 1.248747543149960171e+00 1.359288569258602530e+00 6.270031354679164615e+00 1.117133461570726460e+00 6.478386908522725918e+00 9.901690473956349381e-01 1.119586330905774529e+00 6.477207063766665662e+00 6.211939081320757339e+00 6.332514759473623300e+00 1.332783991156547554e+00 1.051191418517835707e+00 6.330614963485759361e+00 1.332409653665139748e+00 6.269271403305980428e+00 6.398562726118781185e+00 6.345980728847510299e+00 9.906718984706431863e-01 6.401212487604313495e+00 6.345741529241675671e+00 6.210641926789543632e+00
-3.237874617089132032e-04 2.604854458532903649e+00 2.628439125911600449e+00 8.589677074862310351e-04 2.603720355465644953e+00 7.845619147014997630e+00 1.002053801841928582e+01 7.618479036588625242e+00 2.540187220260228251e+00 1.002204266702543123e+01 7.619786012498441785e+00 7.756817224961207735e+00 5.061717007277700020e+00 2.625039970256338062e+00 2.636078603018559896e+00 5.059599247785295795e+00 2.624054898563188409e+00 7.853368590562714857e+00 5.005427559029233642e+00 7.694270793700556332e+00 2.625827434356127643e+00 5.007344386931227298e+00 7.694909173177179262e+00 7.847087448456405490e+00 2.519257098683550744e+00 6.349512120932741810e-02 2.635224195531597147e+00 2.518060506929143294e+00 6.817315426433093184e-02 7.853964146733889429e+00 2.508626921459709447e+00 5.129997733569008567e+00 2.630013496468113665e+00 2.509426904659993962e+00 5.129702348145337432e+00 7.845363507097728117e+00 7.582850248984647656e+00 8.903570191985761551e-02 2.627903644952968687e+00 7.583686537414431328e+00 8.984047470131481528e-02 7.847163647124006935e+00 7.624066518961726047e+00 5.205080234103292902e+00 2.537873057344291361e+00 7.624325013243588245e+00 5.205223075420617462e+00 7.756223059153010801e+00 2.520650066407942980e+00 2.606214761377547262e+00 5.241123836124787161e+00 2.520041160099063760e+00 2.606190768397588453e+00 2.431382992775873650e-02 2.474635901867972443e+00 7.694959772896091010e+00 5.221802611866618982e+00 2.472603156003015723e+00 7.696091046946036407e+00 4.152582450764131898e-03 7.562032687837306533e+00 2.619871375534891911e+00 5.224233162965928656e+00 7.562569877577355548e+00 2.621031178404749973e+00 4.923158522383635875e-03 7.543711542415876714e+00 7.680797949014520398e+00 5.163752433157096533e+00 7.543193749899962164e+00 7.682828227917510411e+00 1.038302241223065359e+01 1.863391907651645515e-02 7.374435596074699339e-02 5.222249592275706398e+00 1.776537776536168609e-02 7.360950107645378160e-02 5.649584420959227575e-03 -2.921573048665831313e-02 5.140182829112903917e+00 5.163858528744276200e+00 -3.304757315715355082e-02 5.140412097626777310e+00 1.038497848975050708e+01 5.060973436022586647e+00 8.522442183064875276e-02 5.240558945942441760e+00 5.058956293642851598e+00 8.467572245442350765e-02 2.091893014004864854e-02 5.038394638777642598e+00 5.127257091620254670e+00 5.223878325771622144e+00 5.039737007598794172e+00 5.126859563529811759e+00 4.738341701702063723e-03 3.771294832911171291e+00 3.878145932359419845e+00 3.652585908720229924e+00 3.772096867357965344e+00 3.877200639784406100e+00 8.879075924578167189e+00 3.744209983448499646e+00 8.943013855381568789e+00 3.648885061398605689e+00 3.736790362860588743e+00 8.942561215254976048e+00 8.872524992686676271e+00 8.840928821403117865e+00 3.882516114404148677e+00 3.600465587000634571e+00 8.839285447164758835e+00 3.880232557445484787e+00 8.810935589600084938e+00 8.807444788016679738e+00 8.953132832799239438e+00 3.600914630866731247e+00 8.802614628413929054e+00 8.946868660408046736e+00 8.811244634110524387e+00 3.796045690389335814e+00 1.347697807383878121e+00 1.612246426216922934e+00 3.783404779536819529e+00 1.350637818871681439e+00 6.834336279121147939e+00 3.758228163402800526e+00 6.413389961576352327e+00 1.596135467044607958e+00 3.762284302727938012e+00 6.411245395589806328e+00 6.812325524420825396e+00 8.847974269058706653e+00 1.344549347198745970e+00 1.591075991121256195e+00 8.855171849042351440e+00 1.344975264042155949e+00 6.810626058707275554e+00 3.792811100058724794e+00 1.344408021226005445e+00 4.220496421066425086e+00 3.791284311040862498e+00 1.346105025733438598e+00 9.449856392916805348e+00 3.755893370253152064e+00 6.404113221449314608e+00 4.215365518688328095e+00 3.749276661525112520e+00 6.405803237842872200e+00 9.436015440681776667e+00 8.852662209604362786e+00 1.349486078930105082e+00 4.216645997747103358e+00 8.856425769278164495e+00 1.345090577180610758e+00 9.438946070290134216e+00 8.822521998698331203e+00 6.410173198841277120e+00 4.135315153956345746e+00 8.816814866521234251e+00 6.408946324164335628e+00 9.368615108241485245e+00 3.762815614184862767e+00 3.885566817623492319e+00 1.045695765904141039e+00 3.754817933712859990e+00 3.890552270880878183e+00 6.267435647951396405e+00 3.755883598561687631e+00 8.931561627809861292e+00 1.042855267421983756e+00 3.755786375301376268e+00 8.930393340039682215e+00 6.268725276248392042e+00 8.774828835082971068e+00 3.989375971279604638e+00 9.865740824050375224e-01 8.773383063817149718e+00 3.978753120868649518e+00 6.208954153760873673e+00 8.871828187009795030e+00 8.836535216092139322e+00 9.940861962335044710e-01 8.873334901611881875e+00 8.840212258299834147e+00 6.216476181965296277e+00 1.260008672553451836e+00 1.354644887350602289e+00 3.648971502103703912e+00 1.250971126651213572e+00 1.350556849280510896e+00 8.872591446654494618e+00 1.223899512776273957e+00 6.411902407942918991e+00 3.599880627262771693e+00 1.212654651683381601e+00 6.407026963146498666e+00 8.815340556476783718e+00 6.323544641227298868e+00 1.343185208286402643e+00 3.658391247426403314e+00 6.319775999340590644e+00 1.345484631450452939e+00 8.871201192464821972e+00 6.296315606358157346e+00 6.409482194877175409e+00 3.596880387236025989e+00 6.288005029465211670e+00 6.412336578248605257e+00 8.816370283289783671e+00 1.215116148475502644e+00 3.897673016213476505e+00 1.572660685969929029e+00 1.209284976965373071e+00 3.909755638413437762e+00 6.785530532396135683e+00 1.212250135691650854e+00 8.947781648437324264e+00 1.605200194400639324e+00 1.213720885858123655e+00 8.956288524334642176e+00 6.818460141080492143e+00 6.291694175466830963e+00 3.876526805970492706e+00 1.603560636798299965e+00 6.297019514363543458e+00 3.865596418255499600e+00 6.820770777015965791e+00 6.298792098138288331e+00 8.919657951667897322e+00 1.565700298837020998e+00 6.298318923454762519e+00 8.920288400102059256e+00 6.788570289564387572e+00 1.256013019523394503e+00 3.869919857823295395e+00 4.190561309587613081e+00 1.253434410474038696e+00 3.863193165994247558e+00 9.400811338616200885e+00 1.244233968683551739e+00 8.984119187883770508e+00 4.219270217095924203e+00 1.254281966203100618e+00 8.993444642738463557e+00 9.440630241326928740e+00 6.256418175104792923e+00 3.831460364134094743e+00 4.221150652178605078e+00 6.266450340041031630e+00 3.836545682041763605e+00 9.434940710227401439e+00 6.258318460817372753e+00 8.973164751995172495e+00 4.180019473440755640e+00 6.263990954285541868e+00 8.963075565043981285e+00 9.402479610323039694e+00 1.254824520762557682e+00 1.357506785658570747e+00 1.052771428128610021e+00 1.248008097284661000e+00 1.359116122825933415e+00 6.271561348809921554e+00 1.117673307890148848e+00 6.478438690452594351e+00 9.885890522743939757e-01 1.122680413022063783e+00 6.475977359504743625e+00 6.214219121514672928e+00 6.332962723178566122e+00 1.333395488636244020e+00 1.051831418011100805e+00 6.329274497315234171e+00 1.332545205696324064e+00 6.270111389075215591e+00 6.399540071255100493e+00 6.346783973924972955e+00 9.896919016185843354e-01 6.404941027164488432e+00 6.346183933388054754e+00 6.211721959807317006e+00
-1.718133900199172106e-05 2.605875484806661646e+00 2.628629120737357105e+00 1.817667681621274204e-03 2.604113542901587142e+00 7.845459153265712082e+00 1.001962908550118669e+01 7.618156014957270017e+00 2.540347213935337578e+00 1.002193174166893819e+01 7.620065641485003205e+00 7.756337221632927381e+00 5.061787442028187201e+00 2.624910201158379142e+00 2.635768604748986110e+00 5.058651452837477969e+00 2.623391739607298323e+00 7.852748586581991930e+00 5.005378168380668846e+00 7.694090619689969657e+00 2.624727435315335367e+00 5.008304110034666579e+00 7.694992368254720105e+00 7.847667457200993901e+00 2.518942093151347539e+00 6.199406018236915811e-02 2.634514204469661447e+00 2.517197921939867911e+00 6.895028914231146611e-02 7.853674132048566570e+00 2.508725448225887611e+00 5.130438071853887116e+00 2.631053493906194696e+00 2.509976106257223893e+00 5.129944173000517083e+00 7.845123510545635170e+00 7.583079982298423616e+00 8.911646555713570450e-02 2.627853646558640843e+00 7.584385098124977631e+00 9.027280405151899556e-02 7.847793650510214825e+00 7.624205597225345521e+00 5.205360689959852571e+00 2.536883056460903063e+00 7.624634021836227404e+00 5.205524098059846949e+00 7.755463059771203760e+00 2.520250828782646835e+00 2.605983436643399376e+00 5.241563834063327043e+00 2.519281752877785330e+00 2.606008251216959781e+00 2.530382394342043165e-02 2.474819197736506382e+00 7.693970371525423957e+00 5.221162621591458830e+00 2.471724362442289546e+00 7.695728119882093488e+00 3.642576741107391835e-03 7.561422917794915932e+00 2.619799353355833915e+00 5.224853157563588368e+00 7.562188019216899981e+00 2.621589911536613471e+00 4.833150301047172900e-03 7.543494011989221093e+00 7.680057214729653303e+00 5.162862436958957524e+00 7.542762989756692349e+00 7.683056795799651617e+00 1.038282240617518681e+01 1.885049794954054420e-02 7.477507854804887888e-02 5.221879586140912188e+00 1.750198605612242678e-02 7.462863357104215778e-02 5.939573672446414598e-03 -2.876373053826771636e-02 5.139584321498364972e+00 5.163028537972043530e+00 1.009772016649346682e+01 5.139875002044954400e+00 1.038575783730029833e+01 5.061453198545976306e+00 8.529601864283301027e-02 5.240778950073393894e+00 5.058376768556242631e+00 8.453379020105809827e-02 2.026892559433722540e-02 5.037743873475685419e+00 5.127484933468890560e+00 5.224328317564634006e+00 5.039706710385341459e+00 5.126949461875666358e+00 4.558340684289253000e-03 3.772680089974012496e+00 3.876570517309668062e+00 3.651255934926930902e+00 3.773953808341629745e+00 3.875106824017919838e+00 8.882015959564217411e+00 3.743429620081546005e+00 8.943131236655558425e+00 3.645705052805530144e+00 3.732380922171279369e+00 8.942386555505359880e+00 8.872204950846709792e+00 8.841546375013562553e+00 3.883248184684283455e+00 3.602155587190921437e+00 8.839127029760559751e+00 3.879762012285032036e+00 8.808945591816664589e+00 8.807837781883199213e+00 8.958244182964367752e+00 3.602864593766462509e+00 8.800648242105360453e+00 8.948792120466706024e+00 8.809424599416288970e+00 3.798672822078545952e+00 1.348566540447811990e+00 1.611766445018148142e+00 3.779777072569378227e+00 1.352945786628428460e+00 6.835936225055295523e+00 3.758825695848906356e+00 6.414131955549618347e+00 1.596605466958955111e+00 3.764975554746409880e+00 6.410874335654076717e+00 6.811935553784540076e+00 8.843566307817026129e+00 1.343934676018226027e+00 1.589025952821204513e+00 8.854383427469503687e+00 1.344502631121445413e+00 6.809416054762765569e+00 3.793773892362756417e+00 1.343581184954069752e+00 4.216536437132277548e+00 3.791544425495037007e+00 1.346065904090537391e+00 9.451596395781107773e+00 3.755276544808470174e+00 6.400151142183217345e+00 4.214475544385354766e+00 3.745397181594066982e+00 6.402630329464181536e+00 9.436495428061872914e+00 8.850556406864059866e+00 1.351229087307123100e+00 4.216405963131715673e+00 8.856217413228918645e+00 1.344589897563450709e+00 9.440896072258777139e+00 8.822194933630875369e+00 6.409302072972466569e+00 4.131095157728581491e+00 8.813679968824351008e+00 6.407395923422488870e+00 9.372055089923087223e+00 3.764137923965293453e+00 3.884881189574516558e+00 1.043285784364162971e+00 3.752192169730919957e+00 3.892283548760643530e+00 6.266925608331187725e+00 3.756842239676581041e+00 8.928974768983321653e+00 1.039015297549135131e+00 3.756747104734210918e+00 8.927166516557683451e+00 6.268855311523990004e+00 8.775933203257938686e+00 3.991079631063580990e+00 9.840440795839753285e-01 8.773825096827017944e+00 3.975134567546268372e+00 6.208634187088745371e+00 8.870879908781299505e+00 8.836012071025576731e+00 9.952961911263425998e-01 8.873170713981259894e+00 8.841461747145485717e+00 6.219916170344134798e+00 1.262263273123393592e+00 1.356282364952641872e+00 3.645821511092155465e+00 1.248772670705367904e+00 1.350089537002197027e+00 8.872291428840497929e+00 1.224880025740468614e+00 6.411745677152507206e+00 3.601250638133671966e+00 1.208073417129708504e+00 6.404381722598450288e+00 8.815500532747501339e+00 6.322240179185188325e+00 1.344520892410777213e+00 3.659951223932823350e+00 6.316647949093988856e+00 1.347904240000472154e+00 8.870241142403934020e+00 6.298329119098056594e+00 6.408428881140634914e+00 3.596820415420279637e+00 6.285924036747123189e+00 6.412629668803763394e+00 8.817090260535078272e+00 1.215117006750507489e+00 3.894403009772065882e+00 1.573750712179017297e+00 1.206405999275586449e+00 3.912456072607243929e+00 6.784100482527552600e+00 1.210728441350650275e+00 8.945276586890152259e+00 1.606460199550408641e+00 1.212975316313982921e+00 8.957966046930552650e+00 6.817400120328307445e+00 6.288164518069070397e+00 3.879425093716504236e+00 1.604020578963962329e+00 6.296188159772468929e+00 3.862993641566033975e+00 6.820890789718110803e+00 6.298701523685410031e+00 8.919837632459810095e+00 1.563320296508975193e+00 6.298037428495646850e+00 8.920737467586191016e+00 6.788650283205923230e+00 1.255942680792838440e+00 3.873019670034019590e+00 4.194151284061231166e+00 1.252115450210771197e+00 3.862878778574701855e+00 9.400601328201334539e+00 1.241579663980456161e+00 8.982400358518454198e+00 4.219590204839532177e+00 1.256682393409516596e+00 8.996322653729047047e+00 9.442680241806142405e+00 6.252336129088261529e+00 3.829056793146819349e+00 4.222430631408148116e+00 6.267420042991144413e+00 3.836638899565707916e+00 9.434180718989441772e+00 6.258506937352030342e+00 8.979645401062924748e+00 4.178379423363319134e+00 6.267016244678479175e+00 8.964495633573735134e+00 9.403119628611218417e+00 1.257437653290295110e+00 1.356565474823817841e+00 1.053861461295471535e+00 1.247268618279170349e+00 1.358953676257900200e+00 6.273081342860230336e+00 1.118203187405001797e+00 6.478480439279572956e+00 9.870190571358075093e-01 1.125774461998162668e+00 6.474757655107458376e+00 6.216489161628139470e+00 6.333420686828268309e+00 1.334007019354193302e+00 1.052471417602160120e+00 6.327924064536260218e+00 1.332670724464370959e+00 6.270941374827107673e+00 6.400527449574432204e+00 6.347577252295927508e+00 9.887119049447689045e-01 6.408659566779903116e+00 6.346626304296179022e+00 6.212801992727296607e+00