-9.492900475899999719e+02
-9.492853299700000207e+02
-9.492712799299999915e+02
-9.492480418200000258e+02
-9.492159067500000447e+02
-9.491752194399999780e+02
-9.491264281999999639e+02
-9.490700740900000483e+02
-9.490067582599999696e+02
-9.489371648400000367e+02
-9.488620352000000366e+02
-9.487821476799999800e+02
-9.486983464200000071e+02
-9.486114870100000189e+02
-9.485224458999999797e+02
-9.484321062799999709e+02
-9.483413554400000294e+02
-9.482510600699999941e+02
-9.481620607099999916e+02
-9.480751652599999488e+02
-9.479911376200000177e+02
-9.479106796800000438e+02
-9.478344403999999486e+02
-9.477629803500000207e+02
-9.476968054300000404e+02
-9.476363305300000093e+02
-9.475818836099999771e+02
-9.475337107499999547e+02
-9.474919694000000163e+02
-9.474567239000000427e+02
-9.474279516899999862e+02
-9.474055509600000278e+02
-9.473893411699999660e+02
-9.473790672200000245e+02
-9.473743929900000467e+02
-9.473749351300000399e+02
-9.473802520599999752e+02
-9.473898584600000277e+02
-9.474032337200000029e+02
-9.474198149600000534e+02
-9.474390389699999560e+02
-9.474603193200000533e+02
-9.474830738099999508e+02
-9.475067264900000055e+02
-9.475307211499999767e+02
-9.475545170599999665e+02
-9.475776059700000360e+02
-9.475995144500000151e+02
-9.476198089099999606e+02
-9.476381085799999937e+02
-9.476540783200000533e+02
-9.476674330399999917e+02
-9.476779387699999688e+02
-9.476854309599999624e+02
-9.476897884799999474e+02
-9.476909510499999669e+02
-9.476888971399999946e+02
-9.476836837700000160e+02
-9.476753990099999783e+02
-9.476641714200000024e+02
-9.476501904699999841e+02
-9.476336629899999480e+02
-9.476148456800000304e+02
-9.475940184199999976e+02
-9.475714701499999819e+02
-9.475475173400000131e+02
-9.475224925200000143e+02
-9.474967302799999516e+02
-9.474705573700000514e+02
-9.474443054700000175e+02
-9.474182943900000282e+02
-9.473928275099999610e+02
-9.473681878700000425e+02
-9.473446378899999445e+02
-9.473224071800000274e+02
-9.473017008799999985e+02
-9.472826877700000523e+02
-9.472655067099999542e+02
-9.472502612499999941e+02
-9.472370159900000317e+02
-9.472257938799999692e+02
-9.472166045599999507e+02
-9.472093963700000359e+02
-9.472041085700000167e+02
-9.472006351600000471e+02
-9.471988557199999832e+02
-9.471986261800000193e+02
-9.471997737699999789e+02
-9.472021259699999973e+02
-9.472054832799999531e+02
-9.472096571700000140e+02
-9.472144412400000419e+02
-9.472196392800000240e+02
-9.472250578199999609e+02
-9.472305166800000507e+02
-9.472358521700000438e+02
-9.472409030699999448e+02
-9.472455500600000278e+02
-9.472496707899999819e+02
-9.472531816499999877e+02
