1.029529352800000019e+01 0.000000000000000000e+00 0.000000000000000000e+00 3.615070599999999773e-02 1.074997631799999986e+01 0.000000000000000000e+00 -4.541270499999999766e-02 -4.939822199999999858e-02 1.030642021100000072e+01
1.030789252099999942e+01 0.000000000000000000e+00 0.000000000000000000e+00 3.619494599999999868e-02 1.076313173499999998e+01 0.000000000000000000e+00 -4.546827900000000033e-02 -4.945867400000000108e-02 1.031903282100000041e+01
1.024275745299999940e+01 0.000000000000000000e+00 0.000000000000000000e+00 3.596623200000000076e-02 1.069512003300000025e+01 0.000000000000000000e+00 -4.518096700000000243e-02 -4.914614700000000114e-02 1.025382735700000048e+01
1.011787339400000008e+01 0.000000000000000000e+00 0.000000000000000000e+00 3.552771600000000085e-02 1.056472057599999914e+01 0.000000000000000000e+00 -4.463010199999999789e-02 -4.854693599999999887e-02 1.012880832899999994e+01
1.032992897599999971e+01 0.000000000000000000e+00 0.000000000000000000e+00 3.627232400000000162e-02 1.078614141099999912e+01 0.000000000000000000e+00 -4.556548199999999743e-02 -4.956440799999999730e-02 1.034109309099999940e+01
1.035114307799999978e+01 0.000000000000000000e+00 0.000000000000000000e+00 3.634681499999999760e-02 1.080829241500000037e+01 0.000000000000000000e+00 -4.565905800000000236e-02 -4.966619600000000273e-02 1.036233011999999931e+01
1.040267298000000018e+01 0.000000000000000000e+00 0.000000000000000000e+00 3.652775600000000150e-02 1.086209809100000001e+01 0.000000000000000000e+00 -4.588635700000000262e-02 -4.991344300000000178e-02 1.041391571299999974e+01
1.024358015399999999e+01 0.000000000000000000e+00 0.000000000000000000e+00 3.596912099999999973e-02 1.069597906799999976e+01 0.000000000000000000e+00 -4.518459600000000048e-02 -4.915009399999999834e-02 1.025465094800000010e+01
1.037003226100000042e+01 0.000000000000000000e+00 0.000000000000000000e+00 3.641314200000000251e-02 1.082801582299999943e+01 0.000000000000000000e+00 -4.574237899999999968e-02 -4.975682900000000242e-02 1.038123971799999978e+01
1.010135338599999955e+01 0.000000000000000000e+00 0.000000000000000000e+00 3.546970800000000257e-02 1.054747097699999969e+01 0.000000000000000000e+00 -4.455723200000000217e-02 -4.846767099999999689e-02 1.011227046800000018e+01
1.013180865300000022e+01 0.000000000000000000e+00 0.000000000000000000e+00 3.557664800000000238e-02 1.057927127499999997e+01 0.000000000000000000e+00 -4.469156999999999991e-02 -4.861379899999999921e-02 1.014275864899999924e+01
1.026917847600000044e+01 0.000000000000000000e+00 0.000000000000000000e+00 3.605900599999999762e-02 1.072270791699999926e+01 0.000000000000000000e+00 -4.529751099999999864e-02 -4.927291899999999836e-02 1.028027693499999984e+01
1.004113046600000025e+01 0.000000000000000000e+00 0.000000000000000000e+00 3.525824300000000161e-02 1.048458836300000030e+01 0.000000000000000000e+00 -4.429158799999999979e-02 -4.817871299999999801e-02 1.005198246099999970e+01
1.025587948099999913e+01 0.000000000000000000e+00 0.000000000000000000e+00 3.601230799999999982e-02 1.070882158400000073e+01 0.000000000000000000e+00 -4.523884899999999765e-02 -4.920910800000000140e-02 1.026696356699999946e+01
1.021891596000000035e+01 0.000000000000000000e+00 0.000000000000000000e+00 3.588251499999999677e-02 1.067022560100000028e+01 0.000000000000000000e+00 -4.507580199999999815e-02 -4.903175199999999789e-02 1.022996009799999939e+01
1.036157438000000042e+01 0.000000000000000000e+00 0.000000000000000000e+00 3.638344300000000142e-02 1.081918440699999984e+01 0.000000000000000000e+00 -4.570507099999999989e-02 -4.971624699999999814e-02 1.037277269600000018e+01
1.028302298999999920e+01 0.000000000000000000e+00 0.000000000000000000e+00 3.610761999999999999e-02 1.073716386299999925e+01 0.000000000000000000e+00 -4.535857900000000303e-02 -4.933934599999999920e-02 1.029413641200000029e+01
1.025867382500000069e+01 0.000000000000000000e+00 0.000000000000000000e+00 3.602211999999999775e-02 1.071173933799999922e+01 0.000000000000000000e+00 -4.525117499999999765e-02 -4.922251600000000088e-02 1.026976093100000043e+01
1.015045498599999974e+01 0.000000000000000000e+00 0.000000000000000000e+00 3.564212299999999778e-02 1.059874110600000030e+01 0.000000000000000000e+00 -4.477381999999999890e-02 -4.870326700000000147e-02 1.016142513399999991e+01
1.027402506299999985e+01 0.000000000000000000e+00 0.000000000000000000e+00 3.607602399999999820e-02 1.072776855000000040e+01 0.000000000000000000e+00 -4.531888900000000109e-02 -4.929617299999999869e-02 1.028512875999999920e+01
1.028124169099999996e+01 0.000000000000000000e+00 0.000000000000000000e+00 3.610136500000000331e-02 1.073530389399999940e+01 0.000000000000000000e+00 -4.535072200000000303e-02 -4.933080000000000104e-02 1.029235318799999988e+01
1.029827414100000027e+01 0.000000000000000000e+00 0.000000000000000000e+00 3.616117199999999837e-02 1.075308856700000071e+01 0.000000000000000000e+00 -4.542585200000000267e-02 -4.941252399999999934e-02 1.030940404500000085e+01
1.035080780400000044e+01 0.000000000000000000e+00 0.000000000000000000e+00 3.634563799999999956e-02 1.080794233399999982e+01 0.000000000000000000e+00 -4.565757899999999675e-02 -4.966458700000000309e-02 1.036199448400000023e+01
1.024647339500000065e+01 0.000000000000000000e+00 0.000000000000000000e+00 3.597928000000000237e-02 1.069900008599999985e+01 0.000000000000000000e+00 -4.519735899999999945e-02 -4.916397599999999812e-02 1.025754731500000005e+01
1.024171360699999944e+01 0.000000000000000000e+00 0.000000000000000000e+00 3.596256600000000136e-02 1.069403008599999971e+01 0.000000000000000000e+00 -4.517636299999999716e-02 -4.914113800000000087e-02 1.025278238299999956e+01
1.034210208400000042e+01 0.000000000000000000e+00 0.000000000000000000e+00 3.631506899999999843e-02 1.079885213400000055e+01 0.000000000000000000e+00 -4.561917800000000328e-02 -4.962281600000000015e-02 1.035327935599999982e+01
1.026412144600000076e+01 0.000000000000000000e+00 0.000000000000000000e+00 3.604124899999999743e-02 1.071742754799999986e+01 0.000000000000000000e+00 -4.527520399999999945e-02 -4.924865400000000282e-02 1.027521443900000087e+01
1.021698028299999983e+01 0.000000000000000000e+00 0.000000000000000000e+00 3.587571800000000088e-02 1.066820443599999990e+01 0.000000000000000000e+00 -4.506726400000000271e-02 -4.902246500000000118e-02 1.022802232799999977e+01
1.032305367899999915e+01 0.000000000000000000e+00 0.000000000000000000e+00 3.624818300000000326e-02 1.077896247299999999e+01 0.000000000000000000e+00 -4.553515500000000077e-02 -4.953141900000000014e-02 1.033421036400000048e+01
1.019855809100000066e+01 0.000000000000000000e+00 0.000000000000000000e+00 3.581103100000000011e-02 1.064896864399999998e+01 0.000000000000000000e+00 -4.498600299999999663e-02 -4.893407200000000207e-02 1.020958022700000001e+01
1.026609559099999913e+01 0.000000000000000000e+00 0.000000000000000000e+00 3.604818099999999859e-02 1.071948887900000003e+01 0.000000000000000000e+00 -4.528391200000000255e-02 -4.925812599999999930e-02 1.027719071799999995e+01
1.005601028799999952e+01 0.000000000000000000e+00 0.000000000000000000e+00 3.531049099999999941e-02 1.050012534000000031e+01 0.000000000000000000e+00 -4.435722300000000118e-02 -4.825010899999999936e-02 1.006687836400000080e+01
1.034220881599999942e+01 0.000000000000000000e+00 0.000000000000000000e+00 3.631544400000000228e-02 1.079896358000000056e+01 0.000000000000000000e+00 -4.561964899999999823e-02 -4.962332800000000127e-02 1.035338620299999945e+01
1.013658458599999967e+01 0.000000000000000000e+00 0.000000000000000000e+00 3.559341800000000167e-02 1.058425813300000051e+01 0.000000000000000000e+00 -4.471263699999999952e-02 -4.863671499999999703e-02 1.014753974399999947e+01
1.023001641299999953e+01 0.000000000000000000e+00 0.000000000000000000e+00 3.592149299999999879e-02 1.068181629599999916e+01 0.000000000000000000e+00 -4.512476700000000313e-02 -4.908501400000000320e-02 1.024107254800000000e+01
1.020263367199999927e+01 0.000000000000000000e+00 0.000000000000000000e+00 3.582534200000000307e-02 1.065322422000000024e+01 0.000000000000000000e+00 -4.500398099999999846e-02 -4.895362799999999903e-02 1.021366021300000071e+01
1.012705272400000034e+01 0.000000000000000000e+00 0.000000000000000000e+00 3.555994800000000094e-02 1.057430530299999916e+01 0.000000000000000000e+00 -4.467059200000000202e-02 -4.859097999999999890e-02 1.013799757900000031e+01
1.033389251000000009e+01 0.000000000000000000e+00 0.000000000000000000e+00 3.628624200000000327e-02 1.079027999100000024e+01 0.000000000000000000e+00 -4.558296600000000254e-02 -4.958342500000000042e-02 1.034506090900000075e+01
1.027346499799999968e+01 0.000000000000000000e+00 0.000000000000000000e+00 3.607405799999999912e-02 1.072718375000000002e+01 0.000000000000000000e+00 -4.531641899999999668e-02 -4.929348599999999747e-02 1.028456809000000050e+01
1.013194035100000079e+01 0.000000000000000000e+00 0.000000000000000000e+00 3.557711100000000154e-02 1.057940878800000029e+01 0.000000000000000000e+00 -4.469215099999999941e-02 -4.861443099999999962e-02 1.014289048899999912e+01
1.029479222800000038e+01 0.000000000000000000e+00 0.000000000000000000e+00 3.614894600000000124e-02 1.074945287899999968e+01 0.000000000000000000e+00 -4.541049400000000263e-02 -4.939581700000000158e-02 1.030591836900000047e+01
1.025379821299999961e+01 0.000000000000000000e+00 0.000000000000000000e+00 3.600500000000000228e-02 1.070664839800000045e+01 0.000000000000000000e+00 -4.522966800000000065e-02 -4.919912199999999791e-02 1.026488004900000028e+01
1.024717166800000001e+01 0.000000000000000000e+00 0.000000000000000000e+00 3.598173200000000238e-02 1.069972919699999991e+01 0.000000000000000000e+00 -4.520043900000000198e-02 -4.916732699999999678e-02 1.025824634299999971e+01
1.033897614800000042e+01 0.000000000000000000e+00 0.000000000000000000e+00 3.630409200000000308e-02 1.079558814299999980e+01 0.000000000000000000e+00 -4.560539000000000259e-02 -4.960781699999999850e-02 1.035015004099999913e+01
1.036579369200000045e+01 0.000000000000000000e+00 0.000000000000000000e+00 3.639825900000000225e-02 1.082359006100000087e+01 0.000000000000000000e+00 -4.572368200000000160e-02 -4.973649200000000020e-02 1.037699656799999914e+01
1.018776521100000032e+01 0.000000000000000000e+00 0.000000000000000000e+00 3.577313299999999863e-02 1.063769910599999946e+01 0.000000000000000000e+00 -4.493839599999999851e-02 -4.888228700000000343e-02 1.019877568200000084e+01
1.029033918500000055e+01 0.000000000000000000e+00 0.000000000000000000e+00 3.613330900000000234e-02 1.074480317099999915e+01 0.000000000000000000e+00 -4.539085100000000289e-02 -4.937445099999999976e-02 1.030146051300000032e+01
1.021909600200000057e+01 0.000000000000000000e+00 0.000000000000000000e+00 3.588314699999999718e-02 1.067041359399999934e+01 0.000000000000000000e+00 -4.507659599999999656e-02 -4.903261600000000109e-02 1.023014033399999967e+01
1.032654349699999941e+01 0.000000000000000000e+00 0.000000000000000000e+00 3.626043699999999953e-02 1.078260641500000006e+01 0.000000000000000000e+00 -4.555054900000000268e-02 -4.954816399999999871e-02 1.033770395400000019e+01
1.027224102599999966e+01 0.000000000000000000e+00 0.000000000000000000e+00 3.606975999999999932e-02 1.072590572200000025e+01 0.000000000000000000e+00 -4.531102000000000046e-02 -4.928761300000000095e-02 1.028334279499999937e+01
1.024501029900000049e+01 0.000000000000000000e+00 0.000000000000000000e+00 3.597414200000000062e-02 1.069747237300000009e+01 0.000000000000000000e+00 -4.519090500000000343e-02 -4.915695600000000165e-02 1.025608263800000053e+01
1.035952361300000035e+01 0.000000000000000000e+00 0.000000000000000000e+00 3.637624200000000307e-02 1.081704307000000043e+01 0.000000000000000000e+00 -4.569602500000000123e-02 -4.970640700000000106e-02 1.037071971299999973e+01
1.027329471700000063e+01 0.000000000000000000e+00 0.000000000000000000e+00 3.607346000000000164e-02 1.072700594900000048e+01 0.000000000000000000e+00 -4.531566800000000339e-02 -4.929266899999999729e-02 1.028439762500000043e+01
1.032523864700000082e+01 0.000000000000000000e+00 0.000000000000000000e+00 3.625585499999999656e-02 1.078124393699999928e+01 0.000000000000000000e+00 -4.554479300000000008e-02 -4.954190299999999825e-02 1.033639769300000033e+01
1.027911796299999914e+01 0.000000000000000000e+00 0.000000000000000000e+00 3.609390700000000146e-02 1.073308637400000087e+01 0.000000000000000000e+00 -4.534135400000000038e-02 -4.932061000000000084e-02 1.029022716399999915e+01
1.032135719200000068e+01 0.000000000000000000e+00 0.000000000000000000e+00 3.624222600000000238e-02 1.077719106199999999e+01 0.000000000000000000e+00 -4.552767199999999820e-02 -4.952327900000000338e-02 1.033251204299999948e+01
1.020346249400000005e+01 0.000000000000000000e+00 0.000000000000000000e+00 3.582825199999999793e-02 1.065408964500000089e+01 0.000000000000000000e+00 -4.500763700000000311e-02 -4.895760400000000179e-02 1.021448992999999916e+01
1.012849611100000047e+01 0.000000000000000000e+00 0.000000000000000000e+00 3.556501699999999738e-02 1.057581243699999973e+01 0.000000000000000000e+00 -4.467695900000000220e-02 -4.859790499999999680e-02 1.013944252699999993e+01
1.021905488700000042e+01 0.000000000000000000e+00 0.000000000000000000e+00 3.588300299999999665e-02 1.067037066400000000e+01 0.000000000000000000e+00 -4.507641500000000162e-02 -4.903241900000000070e-02 1.023009917499999943e+01
1.007695201699999998e+01 0.000000000000000000e+00 0.000000000000000000e+00 3.538402599999999898e-02 1.052199194199999965e+01 0.000000000000000000e+00 -4.444959700000000041e-02 -4.835058999999999885e-02 1.008784272599999987e+01
1.037579575200000015e+01 0.000000000000000000e+00 0.000000000000000000e+00 3.643338000000000132e-02 1.083403385399999941e+01 0.000000000000000000e+00 -4.576780200000000326e-02 -4.978448299999999743e-02 1.038700943799999976e+01
1.028912242400000032e+01 0.000000000000000000e+00 0.000000000000000000e+00 3.612903700000000273e-02 1.074353267300000070e+01 0.000000000000000000e+00 -4.538548399999999677e-02 -4.936861199999999922e-02 1.030024243699999964e+01
1.015606496800000080e+01 0.000000000000000000e+00 0.000000000000000000e+00 3.566182100000000327e-02 1.060459884900000027e+01 0.000000000000000000e+00 -4.479856499999999853e-02 -4.873018500000000225e-02 1.016704117899999993e+01
1.029395847600000025e+01 0.000000000000000000e+00 0.000000000000000000e+00 3.614601800000000198e-02 1.074858230499999934e+01 0.000000000000000000e+00 -4.540681600000000262e-02 -4.939181599999999811e-02 1.030508371600000039e+01
1.019778979600000035e+01 0.000000000000000000e+00 0.000000000000000000e+00 3.580833299999999775e-02 1.064816641800000063e+01 0.000000000000000000e+00 -4.498261399999999716e-02 -4.893038599999999932e-02 1.020881110100000022e+01
1.029232476900000037e+01 0.000000000000000000e+00 0.000000000000000000e+00 3.614028200000000274e-02 1.074687644700000000e+01 0.000000000000000000e+00 -4.539960999999999997e-02 -4.938397800000000198e-02 1.030344824400000014e+01
1.023670029700000050e+01 0.000000000000000000e+00 0.000000000000000000e+00 3.594496300000000338e-02 1.068879536700000088e+01 0.000000000000000000e+00 -4.515424900000000047e-02 -4.911708399999999836e-02 1.024776365499999997e+01
1.012638098899999939e+01 0.000000000000000000e+00 0.000000000000000000e+00 3.555759000000000003e-02 1.057360390200000033e+01 0.000000000000000000e+00 -4.466762900000000036e-02 -4.858775700000000225e-02 1.013732511899999977e+01
1.024372834300000079e+01 0.000000000000000000e+00 0.000000000000000000e+00 3.596964099999999664e-02 1.069613380200000030e+01 0.000000000000000000e+00 -4.518525000000000319e-02 -4.915080499999999880e-02 1.025479929699999992e+01
1.018807696100000015e+01 0.000000000000000000e+00 0.000000000000000000e+00 3.577422799999999820e-02 1.063802462399999982e+01 0.000000000000000000e+00 -4.493977100000000335e-02 -4.888378200000000062e-02 1.019908776900000014e+01
1.009287832499999915e+01 0.000000000000000000e+00 0.000000000000000000e+00 3.543994899999999837e-02 1.053862162200000085e+01 0.000000000000000000e+00 -4.451984800000000075e-02 -4.842700600000000161e-02 1.010378624700000039e+01
1.019790960599999963e+01 0.000000000000000000e+00 0.000000000000000000e+00 3.580875399999999820e-02 1.064829151900000070e+01 0.000000000000000000e+00 -4.498314300000000321e-02 -4.893096100000000198e-02 1.020893104099999960e+01
1.030194080899999953e+01 0.000000000000000000e+00 0.000000000000000000e+00 3.617404700000000084e-02 1.075691716999999947e+01 0.000000000000000000e+00 -4.544202600000000342e-02 -4.943011700000000258e-02 1.031307467599999939e+01
1.027631711899999978e+01 0.000000000000000000e+00 0.000000000000000000e+00 3.608407300000000123e-02 1.073016183300000037e+01 0.000000000000000000e+00 -4.532900000000000124e-02 -4.930717099999999686e-02 1.028742329299999980e+01
1.028461508000000002e+01 0.000000000000000000e+00 0.000000000000000000e+00 3.611320999999999976e-02 1.073882626600000023e+01 0.000000000000000000e+00 -4.536560199999999793e-02 -4.934698500000000293e-02 1.029573022199999954e+01
1.035084018899999947e+01 0.000000000000000000e+00 0.000000000000000000e+00 3.634575200000000200e-02 1.080797615000000000e+01 0.000000000000000000e+00 -4.565772199999999781e-02 -4.966474299999999731e-02 1.036202690400000037e+01
1.027115201500000019e+01 0.000000000000000000e+00 0.000000000000000000e+00 3.606593599999999983e-02 1.072476861700000050e+01 0.000000000000000000e+00 -4.530621600000000332e-02 -4.928238800000000336e-02 1.028225260700000021e+01
1.031620231499999996e+01 0.000000000000000000e+00 0.000000000000000000e+00 3.622412500000000285e-02 1.077180852400000077e+01 0.000000000000000000e+00 -4.550493399999999689e-02 -4.949854499999999796e-02 1.032735159499999966e+01
1.031921208199999995e+01 0.000000000000000000e+00 0.000000000000000000e+00 3.623469299999999838e-02 1.077495121399999967e+01 0.000000000000000000e+00 -4.551821000000000339e-02 -4.951298700000000136e-02 1.033036461500000058e+01
1.022617430500000069e+01 0.000000000000000000e+00 0.000000000000000000e+00 3.590800200000000136e-02 1.067780450499999922e+01 0.000000000000000000e+00 -4.510781900000000039e-02 -4.906657899999999906e-02 1.023722628700000037e+01
1.023120566100000062e+01 0.000000000000000000e+00 0.000000000000000000e+00 3.592566900000000035e-02 1.068305806599999919e+01 0.000000000000000000e+00 -4.513001199999999713e-02 -4.909071999999999741e-02 1.024226308100000082e+01
1.016648832799999980e+01 0.000000000000000000e+00 0.000000000000000000e+00 3.569842200000000049e-02 1.061548254699999916e+01 0.000000000000000000e+00 -4.484454300000000060e-02 -4.878019699999999736e-02 1.017747580400000018e+01
1.030455326799999938e+01 0.000000000000000000e+00 0.000000000000000000e+00 3.618322100000000152e-02 1.075964500599999951e+01 0.000000000000000000e+00 -4.545355000000000228e-02 -4.944265199999999666e-02 1.031568995800000010e+01
1.015507265199999942e+01 0.000000000000000000e+00 0.000000000000000000e+00 3.565833699999999828e-02 1.060356270800000011e+01 0.000000000000000000e+00 -4.479418799999999867e-02 -4.872542299999999688e-02 1.016604779000000036e+01
1.024077700099999966e+01 0.000000000000000000e+00 0.000000000000000000e+00 3.595927799999999730e-02 1.069305211500000041e+01 0.000000000000000000e+00 -4.517223199999999966e-02 -4.913664400000000015e-02 1.025184476499999953e+01
1.024207618400000008e+01 0.000000000000000000e+00 0.000000000000000000e+00 3.596383999999999692e-02 1.069440867600000011e+01 0.000000000000000000e+00 -4.517796200000000206e-02 -4.914287800000000095e-02 1.025314535200000066e+01
1.023403627499999935e+01 0.000000000000000000e+00 0.000000000000000000e+00 3.593560800000000083e-02 1.068601369199999951e+01 0.000000000000000000e+00 -4.514249800000000312e-02 -4.910430100000000297e-02 1.024509675400000042e+01
1.035977273099999962e+01 0.000000000000000000e+00 0.000000000000000000e+00 3.637711700000000048e-02 1.081730319000000051e+01 0.000000000000000000e+00 -4.569712399999999869e-02 -4.970760199999999657e-02 1.037096909999999994e+01
1.035597731200000027e+01 0.000000000000000000e+00 0.000000000000000000e+00 3.636379000000000000e-02 1.081334014900000007e+01 0.000000000000000000e+00 -4.568038199999999854e-02 -4.968939099999999942e-02 1.036716957900000047e+01
1.023210843700000083e+01 0.000000000000000000e+00 0.000000000000000000e+00 3.592883899999999714e-02 1.068400071199999957e+01 0.000000000000000000e+00 -4.513399399999999673e-02 -4.909505100000000066e-02 1.024316683300000008e+01
1.026187438800000074e+01 0.000000000000000000e+00 0.000000000000000000e+00 3.603335900000000092e-02 1.071508125100000086e+01 0.000000000000000000e+00 -4.526529299999999811e-02 -4.923787300000000144e-02 1.027296495300000068e+01
1.028050791499999939e+01 0.000000000000000000e+00 0.000000000000000000e+00 3.609878799999999971e-02 1.073453771099999976e+01 0.000000000000000000e+00 -4.534748499999999988e-02 -4.932727900000000165e-02 1.029161861799999933e+01
1.017568559000000050e+01 0.000000000000000000e+00 0.000000000000000000e+00 3.573071700000000211e-02 1.062508599799999942e+01 0.000000000000000000e+00 -4.488511199999999784e-02 -4.882432700000000070e-02 1.018668300600000087e+01
1.034249326199999963e+01 0.000000000000000000e+00 0.000000000000000000e+00 3.631644199999999739e-02 1.079926058799999922e+01 0.000000000000000000e+00 -4.562090399999999685e-02 -4.962469299999999750e-02 1.035367095600000020e+01
1.016758127900000019e+01 0.000000000000000000e+00 0.000000000000000000e+00 3.570225999999999955e-02 1.061662376800000018e+01 0.000000000000000000e+00 -4.484936400000000267e-02 -4.878544099999999883e-02 1.017856993700000068e+01
1.010747232599999990e+01 0.000000000000000000e+00 0.000000000000000000e+00 3.549119399999999674e-02 1.055386015400000055e+01 0.000000000000000000e+00 -4.458422299999999922e-02 -4.849703000000000347e-02 1.011839602000000049e+01
1.028294715300000028e+01 0.000000000000000000e+00 0.000000000000000000e+00 3.610735300000000175e-02 1.073708467600000027e+01 0.000000000000000000e+00 -4.535824499999999843e-02 -4.933898300000000292e-02 1.029406049299999992e+01
1.025203371899999993e+01 0.000000000000000000e+00 0.000000000000000000e+00 3.599880400000000230e-02 1.070480597699999947e+01 0.000000000000000000e+00 -4.522188500000000333e-02 -4.919065599999999927e-02 1.026311364899999923e+01
1.032312005700000057e+01 0.000000000000000000e+00 0.000000000000000000e+00 3.624841599999999858e-02 1.077903178200000056e+01 0.000000000000000000e+00 -4.553544799999999920e-02 -4.953173799999999877e-02 1.033427681400000075e+01
1.012948336000000005e+01 0.000000000000000000e+00 0.000000000000000000e+00 3.556848299999999796e-02 1.057684328700000087e+01 0.000000000000000000e+00 -4.468131399999999975e-02 -4.860264200000000145e-02 1.014043084300000075e+01
