-9.104550906099999565e+02
-9.088695946899999853e+02
-9.125029290700000502e+02
-9.212525468000000046e+02
-9.157322490699999662e+02
-9.078539801699999998e+02
-9.030107304000000568e+02
-9.167370060399999829e+02
-9.062114658699999836e+02
-9.057491873500000565e+02
-9.070934372799999892e+02
-9.137309924300000148e+02
-9.179294039300000350e+02
-9.071018512099999498e+02
-9.145929270399999496e+02
-9.115127769800000124e+02
-9.070268206599999985e+02
-9.071852888299999904e+02
-9.100646113499999501e+02
-9.110810391300000219e+02
-9.152153441499999644e+02
-9.089973023300000250e+02
-9.111082858900000474e+02
-9.060725217799999882e+02
-9.097545744799999738e+02
-9.055366220700000213e+02
-9.063373790699999972e+02
-9.084253664399999479e+02
-9.063834805899999765e+02
-9.064943861900000002e+02
-9.058113195500000074e+02
-9.134687370499999588e+02
-9.036400703199999498e+02
-9.072910584600000448e+02
-9.120816762299999709e+02
-9.054557156700000178e+02
-9.128512675399999807e+02
-9.076713752000000568e+02
-9.112495243099999698e+02
-9.065355404399999770e+02
-9.089252888199999916e+02
-9.119203156199999967e+02
-9.115294986999999765e+02
-9.047658414700000549e+02
-9.053745319399999971e+02
-9.104060433800000283e+02
-9.127029446699999653e+02
-9.137154253800000561e+02
-9.071837818899999775e+02
-9.124388454200000069e+02
-9.137267145299999811e+02
-9.093673017500000242e+02
-9.035198301200000515e+02
-9.076873347900000226e+02
-9.059068905100000393e+02
-9.051745234600000458e+02
-9.129513949600000160e+02
-9.057037771400000565e+02
-9.057242906200000334e+02
-9.065586645399999952e+02
-9.054029020200000559e+02
-9.088302560199999789e+02
-9.051185003000000506e+02
-9.105779178400000546e+02
-9.049979908899999828e+02
-9.067037765799999534e+02
-9.046732663999999886e+02
-9.132068503599999758e+02
-9.150861728300000095e+02
-9.065986498600000232e+02
-9.071695648400000209e+02
-9.093363356700000395e+02
-9.058287065700000085e+02
-9.036972314500000039e+02
-9.101579656999999770e+02
-9.020629758999999694e+02
-9.143212656599999946e+02
-9.110653815199999599e+02
-9.056929626300000109e+02
-9.079964365900000303e+02
-9.126388127899999745e+02
-9.161468698099999983e+02
-9.120357148199999529e+02
-9.029584289199999603e+02
-9.062959224899999526e+02
-9.167574752399999625e+02
-9.091315807600000198e+02
-9.047814957399999685e+02
-9.114933463400000164e+02
-9.046979471099999728e+02
-9.116792247600000110e+02
-9.107411540800000012e+02
-9.034227768299999752e+02
-9.050485504299999775e+02
-9.072975226500000190e+02
-9.115022040100000140e+02
-9.056754136700000117e+02
-9.109395885599999474e+02
-9.091846721199999592e+02
-9.115842961600000081e+02
