1.468720000000000026e-01 3.924929999999999808e-01 -8.175590000000000357e-01 5.183619999999999894e-01 4.560020000000000184e-01 2.475232000000000099e+00 -1.135186000000000028e+00 -6.648230000000000528e-01 4.447590000000000154e-01 -5.380489999999999995e-01 -8.343140000000000001e-01 -2.327741000000000060e+00 -1.754699000000000009e+00 1.627893000000000034e+00 2.076454000000000022e+00 -6.187270000000000270e-01 -1.541511000000000076e+00 -2.203129999999999811e+00 -9.712539999999999507e-01 2.521345999999999865e+00 4.415462999999999916e+00 1.502817999999999987e+00 4.848819999999999797e-01 -2.708639999999999937e-01 -1.241338000000000052e+00 -2.973603999999999914e+00 3.469911000000000190e+00 -3.266640000000000099e-01 -9.078619999999999468e-01 -3.068251000000000062e+00 3.253050000000000108e-01 1.439885000000000081e+00 2.562691000000000052e+00 -3.284393999999999814e+00 -1.486134999999999984e+00 -1.097976000000000063e+00 1.973656000000000077e+00 -8.941289999999999516e-01 7.436490000000000045e-01 -1.189516999999999936e+00 -2.927986999999999895e+00 -1.311938999999999966e+00 1.345591999999999899e+00 -1.647963999999999984e+00 -1.367170999999999914e+00 -1.604079999999999950e-01 6.395499999999999519e-01 -4.198359999999999870e-01 2.278566999999999787e+00 -4.873020000000000129e-01 -1.613887999999999989e+00 -3.743070000000000008e-01 -6.273560000000000247e-01 -8.299299999999999455e-01 3.251430000000000153e-01 4.887639999999999763e-01 9.542380000000000306e-01 5.539399999999999880e-02 9.455390000000000184e-01 -1.519633000000000012e+00 1.296378999999999948e+00 -9.063330000000000553e-01 2.161493999999999804e+00 1.855518000000000001e+00 -4.192839999999999900e-01 -3.064890000000000114e-01 -3.197455000000000158e+00 -2.268419000000000185e+00 7.377160000000000384e-01 1.974799999999999889e-01 6.723390000000000200e-01 1.324919999999999987e-01 2.416480000000000017e-01 -1.724865000000000093e+00 1.299693999999999905e+00 -1.342108999999999996e+00 -1.300688000000000066e+00 -1.838279999999999914e-01 8.799259999999999859e-01 1.027959999999999985e-01 2.262719999999999843e+00 -1.566243000000000052e+00 1.542899999999999938e+00 -1.285752000000000006e+00 -8.623729999999999452e-01 -1.066915000000000058e+00 1.258380999999999972e+00 2.095918999999999865e+00 -3.343015999999999988e+00 -2.962094000000000005e+00 -1.574986999999999915e+00 8.716850000000000431e-01 -1.871644000000000085e+00 -2.961079999999999823e-01 -1.931507000000000085e+00 2.815349999999999797e-01 1.179799000000000042e+00 1.549527000000000099e+00 5.869200000000000111e-02 -6.364319999999999977e-01 -7.737309999999999466e-01 1.201470999999999956e+00 -9.361040000000000472e-01 -1.659569999999999934e-01 -2.442047000000000079e+00 1.040251000000000037e+00 -4.117029999999999856e-01 1.045773000000000064e+00 2.243350000000000066e-01 1.255830999999999920e+00 -1.107944000000000040e+00 8.814330000000000220e-01 1.193170000000000064e-01 7.126850000000000129e-01 1.086691999999999991e+00 1.653817000000000093e+00 -9.468159999999999910e-01 1.942638000000000087e+00 -2.145750000000000046e+00 2.410921000000000092e+00 -3.286000000000000032e-01 -7.854470000000000063e-01 -1.286529999999999896e-01 8.793009999999999993e-01 8.560050000000000159e-01 1.769300000000000039e-02 3.866419999999999857e-01 4.678700000000000081e-01 -1.808794000000000013e+00 -3.728339999999999987e-01 7.638270000000000337e-01 1.034124999999999961e+00 2.796159999999999757e-01 7.937279999999999891e-01 2.870110000000000161e-01 -6.914740000000000331e-01 -1.255133999999999972e+00 -2.356059999999999821e+00 8.112399999999999611e-01 -1.509590999999999905e+00 -7.673980000000000246e-01 1.333043999999999896e+00 8.377269999999999994e-01 -2.189129999999999965e-01 -4.510600000000000026e-02 3.779799999999999827e-02 -1.675275999999999987e+00 1.789244000000000057e+00 3.885282999999999820e+00 1.762871999999999995e+00 2.868319999999999759e-01 -7.688490000000000046e-01 -9.490410000000000235e-01 -1.037763999999999909e+00 8.451440000000000063e-01 9.504439999999999555e-01 -5.837539999999999951e-01 -5.893119999999999470e-01 8.897639999999999993e-01 -2.624400000000000066e-01 2.445828000000000113e+00 -1.803869999999999918e-01 1.439229000000000092e+00 2.695746000000000198e+00 1.148115999999999914e+00 1.921710000000000029e+00 1.379259999999999931e-01 -3.225350000000000161e-01 -6.159440000000000470e-01 1.793659999999999977e-01 -3.494220000000000104e-01 -5.868839999999999613e-01 -5.246939999999999937e-01 -1.020567000000000002e+00 -2.070078000000000085e+00 2.832259999999999778e-01 -6.168190000000000062e-01 -3.349864999999999871e+00 -1.788279999999999870e-01 -3.047250000000000236e-01 1.754809999999999981e-01 -5.367720000000000269e-01 -7.006299999999999750e-01 9.803849999999999509e-01 -2.272831000000000046e+00 5.901290000000000147e-01 -5.512489999999999890e-01 4.984890000000000154e-01 -8.231199999999999628e-01 -1.147216000000000014e+00 1.229066999999999910e+00 1.430700000000000083e+00 -3.732750000000000234e-01 5.390960000000000196e-01 -8.081909999999999927e-01 -3.032500000000000195e-01 1.166946000000000039e+00 -7.075420000000000043e-01 7.477679999999999882e-01 9.841320000000000068e-01 -6.031910000000000327e-01 6.387220000000000120e-01 -4.183549999999999769e-01 1.563536000000000037e+00 -3.825390000000000179e-01 -5.999550000000000161e-01 -6.825820000000000221e-01 -1.599668000000000090e+00 4.217978999999999701e+00 2.377949000000000090e+00 4.837969999999999771e-01 -7.164120000000000488e-01 1.815183999999999909e+00 -1.503789999999999960e+00 -6.537330000000000085e-01 -5.583599999999999675e-02 -1.151713999999999904e+00 -2.328040000000000109e-01 -1.985818000000000083e+00 2.430360000000000020e-01 -1.061590999999999951e+00 -7.408369999999999678e-01 2.953199999999999922e-02 2.111327999999999872e+00 3.751340000000000230e-01 3.428701999999999916e+00 -2.726890000000000147e-01 1.673871000000000109e+00 -1.299431999999999920e+00 -8.882800000000000418e-02 -1.245587000000000000e+00 1.576244999999999896e+00 3.625360000000000249e-01 2.107178000000000218e+00 7.858920000000000350e-01 -7.838150000000000395e-01 -5.323309999999999986e-01 7.283049999999999802e-01 2.640270000000000117e-01 1.090389999999999970e+00 -1.806602999999999959e+00 2.490650000000000031e+00 -1.222034999999999982e+00 5.059360000000000523e-01 1.796330999999999900e+00 5.577940000000000120e-01 1.359755000000000047e+00 -6.666980000000000128e-01 -1.511559000000000097e+00 7.515100000000000113e-01 -1.334027999999999992e+00 2.111300000000000121e-01 -1.344960000000000044e-01 1.683080000000000132e-01 1.395019999999999871e-01 -2.493229999999999891e-01 -6.695290000000000408e-01 5.492299999999999960e-02 -2.300873999999999864e+00 1.866473000000000049e+00 -5.877529999999999699e-01 -9.591169999999999973e-01 1.142679999999999946e-01 7.245369999999999866e-01 1.893283999999999967e+00 -1.289520999999999917e+00 -5.836019999999999541e-01 -6.598990000000000133e-01 2.557309000000000054e+00 8.788329999999999753e-01 1.980890000000000040e+00 -2.137681999999999860e+00 -2.036359000000000030e+00 -4.562829999999999941e-01 -5.627229999999999732e-01 1.093312000000000062e+00
-9.277980000000000116e-01 3.553999999999999937e-01 -9.235799999999999566e-02 4.337822000000000067e+00 1.567474999999999952e+00 -5.860720000000000374e-01 1.536678999999999906e+00 -3.641385000000000094e+00 3.403694000000000219e+00 -1.463977000000000084e+00 -2.028106000000000186e+00 -1.943942999999999977e+00 -1.081674000000000024e+00 -1.114310000000000023e-01 1.346888000000000085e+00 -2.122837999999999781e+00 1.470980000000000065e-01 1.703046999999999978e+00 2.020413000000000014e+00 -2.943459999999999965e-01 -4.448499999999999677e-02 -2.570723999999999787e+00 -2.913180000000000214e-01 3.370299999999999685e-02 -6.346669999999999812e-01 -1.582244999999999902e+00 1.305913000000000102e+00 -3.040093999999999852e+00 -3.894032999999999856e+00 1.229913000000000034e+00 -1.656068000000000096e+00 2.912390000000000256e-01 -1.020261000000000084e+00 -2.154018000000000210e+00 7.722510000000000208e-01 -1.714337999999999917e+00 8.484410000000000007e-01 -5.226079999999999615e-01 -9.114300000000000179e-02 -5.303520000000000456e-01 4.107080000000000175e-01 -1.281223999999999918e+00 -7.790899999999999492e-01 3.148248000000000157e+00 1.418280000000000096e-01 1.299780000000000102e-01 4.222480000000000122e-01 6.099900000000000322e-01 -1.217270000000000074e+00 1.232204000000000077e+00 3.852410000000000001e-01 1.165715999999999974e+00 2.098176000000000041e+00 -1.596125999999999934e+00 -2.857385999999999981e+00 -3.235410000000000230e-01 1.174333999999999989e+00 -7.894400000000000306e-01 -8.240400000000000502e-02 -1.957869000000000081e+00 -6.910770000000000524e-01 6.278610000000000024e-01 -2.933765000000000178e+00 -1.855819999999999970e-01 -8.064719999999999667e-01 6.360670000000000490e-01 1.233408000000000060e+00 4.966119999999999979e-01 -1.833827000000000096e+00 9.423799999999999955e-01 -9.172749999999999515e-01 2.128710000000000047e-01 1.783435000000000104e+00 -4.307779999999999943e-01 8.848999999999999921e-02 2.502825000000000077e+00 9.350420000000000398e-01 2.987365000000000048e+00 2.845692000000000110e+00 9.683089999999999753e-01 -2.375939999999999996e-01 1.043849000000000027e+00 -5.233680000000000554e-01 -2.749280000000000057e-01 -9.454639999999999711e-01 -7.296000000000000402e-03 -2.278011999999999926e+00 3.834060000000000246e-01 -6.136869999999999825e-01 -1.505562000000000067e+00 1.342216000000000076e+00 1.190917000000000003e+00 -8.400809999999999667e-01 -9.040080000000000338e-01 3.375888999999999918e+00 -7.274500000000000410e-02 -1.939099999999999990e-01 2.058351000000000042e+00 1.004480999999999957e+00 -2.869309999999999916e-01 3.053839999999999888e-01 -7.825320000000000054e-01 -7.086609999999999854e-01 -2.114053000000000182e+00 -2.232578000000000173e+00 2.793877999999999862e+00 -5.229530000000000012e-01 1.498607000000000022e+00 1.474944000000000033e+00 -7.696119999999999628e-01 5.127880000000000216e-01 4.426309999999999967e-01 -1.251970000000000027e+00 -1.887081999999999926e+00 -1.145531999999999995e+00 -1.370962999999999932e+00 -1.294535999999999909e+00 9.444700000000000317e-02 4.570060000000000233e-01 1.323236999999999997e+00 1.068775999999999948e+00 -9.125100000000000433e-01 -5.812079999999999469e-01 -1.184620000000000006e+00 1.371032000000000028e+00 2.072110000000000063e-01 -1.973621999999999987e+00 -5.110869999999999580e-01 2.527957999999999927e+00 2.963978000000000002e+00 6.768100000000000505e-02 -2.704183000000000003e+00 3.581179999999999919e-01 -6.383900000000000685e-02 -6.226009999999999600e-01 -2.156709000000000209e+00 9.509210000000000163e-01 2.116280999999999857e+00 -1.382503000000000037e+00 4.070469999999999922e-01 -4.589965000000000295e+00 -2.508002999999999982e+00 6.483649999999999691e-01 1.292696999999999985e+00 2.307700000000000029e-02 -1.089286999999999894e+00 1.498039999999999927e-01 -5.047089999999999632e-01 -7.343530000000000335e-01 -6.570920000000000094e-01 4.415459999999999940e-01 -9.138129999999999864e-01 -4.611649999999999916e-01 1.293410000000000115e-01 -3.225660000000000194e-01 -2.413669999999999982e-01 8.907100000000000017e-01 6.245079999999999520e-01 2.269720000000000071e-01 -2.951389999999999847e-01 -2.317819999999999880e-01 3.924360000000000070e-01 -1.655362999999999918e+00 2.192654999999999799e+00 -1.975897000000000014e+00 3.881850000000000023e-01 -1.185599999999999987e+00 3.736349999999999949e-01 1.046280000000000099e+00 4.272529999999999939e-01 -2.638610000000000122e-01 3.339106999999999825e+00 7.983599999999999586e-01 9.622169999999999890e-01 1.172298999999999980e+00 1.175008000000000052e+00 1.340966000000000102e+00 5.984770000000000367e-01 -2.502369999999999872e-01 9.565839999999999899e-01 2.450730000000000131e-01 -4.598559999999999870e-01 1.281629999999999991e-01 -1.294318999999999997e+00 -2.029781999999999975e+00 -1.694289999999999963e-01 1.523883000000000099e+00 -3.086530000000000107e-01 -1.064742999999999995e+00 -2.546780000000000155e-01 -1.104198999999999931e+00 -3.127889999999999837e-01 -2.056201000000000167e+00 1.890344999999999942e+00 3.245496000000000159e+00 5.321970000000000312e-01 -8.878110000000000168e-01 -1.710031000000000079e+00 1.764129999999999865e-01 8.476400000000000601e-02 1.124052999999999969e+00 -1.659229999999999983e+00 2.959269999999999956e-01 5.096349999999999492e-01 1.537399999999999878e-01 6.364520000000000177e-01 1.161067999999999989e+00 -2.043889000000000067e+00 1.260467000000000004e+00 -1.267984999999999918e+00 4.065940000000000110e-01 -1.505792000000000019e+00 1.114419000000000048e+00 6.243769999999999598e-01 1.631529999999999925e-01 1.695937999999999946e+00 -3.573209999999999997e-01 -1.901067999999999980e+00 -2.043419999999999959e-01 5.623449999999999838e-01 6.654379999999999740e-01 -8.930299999999999350e-02 1.178792000000000062e+00 -1.347386999999999890e+00 9.501800000000000523e-02 2.577479999999999771e-01 -1.106116000000000099e+00 2.783979999999999788e-01 -1.174541999999999975e+00 -6.526659999999999684e-01 -1.082098999999999922e+00 -4.965490000000000181e-01 9.608280000000000154e-01 1.689308999999999950e+00 -2.059840000000000004e-01 1.240507000000000026e+00 1.481400000000000078e-02 9.092479999999999452e-01 7.975229999999999819e-01 -5.070000000000000062e-01 -1.534500000000000031e-01 -5.113029999999999520e-01 1.944430000000000047e-01 -1.567593999999999932e+00 -1.907048000000000076e+00 8.465719999999999912e-01 -1.138357999999999981e+00 -2.871485999999999983e+00 2.367319999999999869e+00 9.339450000000000252e-01 9.640919999999999490e-01 -7.025979999999999448e-01 -3.063219999999999832e-01 1.585882999999999932e+00 1.055527000000000104e+00 -2.454929999999999890e-01 -1.430479999999999974e+00 -8.769200000000000605e-02 1.658287000000000067e+00 -7.229750000000000343e-01 -9.020059999999999745e-01 3.433590000000000253e-01 2.478450000000000042e+00 1.710523000000000016e+00 1.382500000000000048e-02 2.031810000000000116e+00 -2.713149999999999729e-01 1.339126999999999956e+00 1.902925999999999895e+00 6.022340000000000471e-01 -2.332369999999999999e-01 1.678913000000000100e+00 -6.260919999999999819e-01 1.533388999999999891e+00 -1.099182000000000103e+00 -3.823239999999999972e-01
6.870140000000000136e-01 2.502349999999999852e-01 -7.349999999999999763e-03 1.161390000000000061e-01 -8.435390000000000388e-01 -5.401409999999999823e-01 -1.659351999999999938e+00 -2.360686999999999980e+00 -3.582250999999999852e+00 4.486400000000000110e-02 -1.946245000000000003e+00 1.530590000000000006e-01 -3.431580000000000186e-01 1.420439999999999925e+00 9.312199999999999644e-02 4.089030000000000165e-01 -1.391739999999999922e-01 6.324790000000000134e-01 -8.085649999999999782e-01 4.797620000000000218e-01 -2.742023999999999795e+00 1.103460000000000107e+00 1.079169999999999990e-01 1.656276999999999999e+00 -4.616160000000000263e-01 -1.331601000000000035e+00 -1.756499000000000033e+00 6.506030000000000424e-01 1.036450000000000010e-01 1.355464999999999920e+00 2.434000000000000052e-01 -5.188700000000000534e-01 -1.114499999999999935e-01 1.025268000000000068e+00 8.494920000000000249e-01 1.848665999999999920e+00 -4.133749999999999925e-01 1.453689000000000009e+00 2.510769999999999946e-01 -2.314640000000000031e-01 -1.700309999999999877e-01 9.347229999999999706e-01 -7.453799999999999315e-02 6.697400000000000575e-02 -1.013750000000000068e-01 -2.314954000000000178e+00 -1.754950999999999928e+00 -1.410347999999999935e+00 1.623633000000000104e+00 -4.178459999999999952e-01 3.830950000000000188e-01 1.414576000000000056e+00 -4.666750000000000065e-01 -2.273299999999999974e-02 3.320589999999999931e-01 1.400246000000000102e+00 1.440285999999999955e+00 5.169209999999999638e-01 -3.441949999999999732e-01 1.897108999999999934e+00 -2.817091000000000012e+00 -9.727179999999999715e-01 -1.001819999999999933e-01 -1.296934000000000031e+00 2.197621999999999964e+00 6.512329999999999508e-01 2.092855999999999828e+00 -2.055398999999999976e+00 -6.593869999999999454e-01 -1.666902000000000106e+00 2.216601999999999961e+00 1.033720000000000055e-01 -3.511295000000000055e+00 4.200918999999999848e+00 9.560490000000000377e-01 -1.353060000000000096e-01 1.971389000000000058e+00 -4.100989999999999913e-01 8.648069999999999924e-01 -1.596576999999999913e+00 -2.307967000000000102e+00 1.436878000000000100e+00 -3.789999999999999966e-03 -1.695381000000000027e+00 -9.715279999999999472e-01 -1.613256999999999941e+00 1.239392999999999967e+00 5.082500000000000212e-02 -1.024609000000000103e+00 -1.086684999999999901e+00 -2.959076000000000040e+00 8.538799999999999724e-01 7.306599999999999762e-01 -2.712010000000000254e-01 -1.936563000000000034e+00 -4.002189999999999914e-01 2.766779999999999795e-01 1.596198000000000006e+00 1.380690999999999891e+00 -5.636539999999999884e-01 -6.793860000000000454e-01 -1.205286000000000080e+00 -8.039269999999999472e-01 1.337096000000000062e+00 1.216062999999999894e+00 -9.191000000000000281e-01 1.564891000000000032e+00 -2.269725000000000215e+00 1.810888999999999971e+00 3.655900000000000122e-02 4.789450000000000096e-01 1.207071000000000005e+00 -1.104678000000000049e+00 -4.739959999999999729e-01 1.102281000000000066e+00 -6.040079999999999893e-01 -3.997709999999999875e-01 1.706099000000000032e+00 -4.974029999999999840e-01 3.055880000000000263e-01 2.319446999999999814e+00 -1.394799999999999929e-01 8.215219999999999745e-01 -3.099660000000000193e-01 -8.813060000000000338e-01 4.804400000000000337e-02 1.732023000000000090e+00 -6.556809999999999583e-01 -3.703339999999999965e-01 3.416950000000000265e-01 -3.612170000000000103e-01 6.802019999999999733e-01 -2.441190000000000027e-01 4.755619999999999847e-01 2.313979999999999926e-01 -1.255184000000000077e+00 1.557031999999999972e+00 3.633179999999999743e-01 1.565625999999999962e+00 -1.743290000000000006e+00 8.545899999999999608e-01 1.032048999999999994e+00 2.310210000000000041e-01 3.922610000000000263e-01 6.892070000000000141e-01 -7.764560000000000350e-01 -2.729519999999999724e-01 -6.787699999999999845e-01 2.909129999999999772e-01 -6.813390000000000279e-01 -3.844460000000000099e-01 1.134938999999999920e+00 -2.505930000000000102e-01 -6.130250000000000421e-01 -1.025263000000000035e+00 -3.228840000000000043e-01 1.797401000000000026e+00 8.191519999999999913e-01 -5.802289999999999948e-01 1.012186000000000030e+00 1.318332999999999977e+00 8.862060000000000493e-01 -2.532849999999999824e-01 1.212880000000000069e-01 2.631419999999999870e-01 -6.724299999999999722e-02 5.629589999999999872e-01 -1.011171999999999960e+00 -8.237200000000000077e-02 -1.014369000000000076e+00 5.930549999999999988e-01 -1.120177999999999896e+00 -5.718339999999999534e-01 -1.421189999999999953e-01 1.341788999999999898e+00 1.148435000000000095e+00 1.046580000000000066e+00 5.497159999999999824e-01 1.744837999999999889e+00 -2.443269999999999886e-01 7.678449999999999998e-01 6.770380000000000287e-01 6.537600000000000355e-02 -2.497260000000000035e-01 -7.108740000000000059e-01 1.388894999999999991e+00 -5.565579999999999972e-01 2.378309999999999869e-01 1.345020000000000104e-01 1.026448999999999945e+00 -2.117529999999999912e+00 4.236380000000000146e-01 -3.285739999999999772e-01 -3.504099999999999993e-01 -6.737279999999999935e-01 2.090443000000000051e+00 -2.675184999999999924e+00 1.195994999999999919e+00 2.547566000000000219e+00 1.090009000000000006e+00 -2.152645999999999837e+00 2.530060000000000087e-01 -5.784690000000000110e-01 5.168260000000000076e-01 4.143769999999999953e-01 -8.891019999999999479e-01 -2.338230000000000031e-01 1.072837000000000041e+00 5.154029999999999445e-01 1.479916000000000009e+00 -7.541029999999999678e-01 -1.444382999999999972e+00 2.765070000000000028e-01 2.816500000000000115e-01 -1.284650000000000070e+00 2.332000000000000045e-02 -4.521120000000000139e-01 -2.779039999999999844e-01 -1.465120000000000033e-01 -1.075028000000000095e+00 1.517744999999999900e+00 1.282399999999999929e-01 -9.550950000000000273e-01 4.352899999999999825e-02 -9.688090000000000312e-01 -3.312109999999999776e-01 8.750580000000000025e-01 5.806399999999999756e-02 6.377490000000000103e-01 -2.652210999999999874e+00 -1.357042000000000082e+00 -1.871386999999999912e+00 1.585857000000000072e+00 -3.403809999999999891e-01 1.160218999999999889e+00 -9.740339999999999554e-01 2.383548999999999918e+00 -9.396079999999999988e-01 1.185877999999999988e+00 -9.106319999999999970e-01 1.392560000000000020e+00 -1.896495999999999960e+00 -8.857340000000000213e-01 -6.216669999999999696e-01 2.238809999999999967e-01 -6.064469999999999583e-01 7.990209999999999813e-01 -2.754480000000000262e-01 1.608122000000000051e+00 -1.385426000000000046e+00 1.105536000000000074e+00 -1.168728999999999907e+00 -2.028401999999999816e+00 1.429853000000000041e+00 1.631083000000000061e+00 -4.910149999999999793e-01 9.109949999999999992e-01 -1.672649999999999970e+00 -1.558140999999999998e+00 1.430863999999999914e+00 6.655219999999999470e-01 -1.601474000000000064e+00 9.130399999999999627e-01 -4.116299999999999820e-02 -1.880268999999999968e+00 1.609895999999999994e+00 4.197560000000000180e-01 1.486990000000000034e+00 -3.741430000000000033e-01 -1.174479000000000051e+00 1.891569999999999918e-01 -6.901249999999999885e-01 1.286076999999999915e+00 -9.048129999999999784e-01 -1.223790000000000017e-01 -8.146299999999999375e-02
1.474580000000000057e-01 1.114720000000000016e-01 8.329839999999999467e-01 -5.066850000000000520e-01 2.295629999999999893e-01 9.031420000000000003e-01 6.163170000000000037e-01 -7.618850000000000344e-01 9.692619999999999569e-01 -7.913829999999999476e-01 2.353669999999999929e-01 1.358854999999999924e+00 -6.324880000000000502e-01 9.572899999999999465e-02 8.894750000000000156e-01 -1.142959000000000058e+00 1.209103999999999957e+00 6.193650000000000544e-01 -1.437904000000000071e+00 -5.281930000000000236e-01 -1.389829999999999954e-01 1.349644000000000066e+00 7.746420000000000528e-01 -2.785919999999999952e+00 1.191562999999999928e+00 2.097046000000000188e+00 -1.579342999999999941e+00 2.139840000000000075e-01 -2.120940000000000047e+00 -1.890698999999999907e+00 -2.564879999999999938e-01 1.546949999999999992e-01 7.389569999999999750e-01 -1.742318000000000033e+00 -7.882000000000000117e-03 8.894210000000000171e-01 -8.473190000000000444e-01 -2.084270000000000012e-01 4.937619999999999787e-01 -8.481000000000000691e-03 3.640660000000000007e-01 5.600070000000000325e-01 2.407720000000000138e-01 -1.727897999999999934e+00 5.245729999999999560e-01 1.129461999999999966e+00 -1.516864999999999908e+00 -1.131869000000000014e+00 -8.178170000000000162e-01 -4.504610000000000003e-01 7.601050000000000306e-01 -2.119280000000000053e-01 -2.410000000000000033e-04 -1.242612000000000050e+00 -1.260280000000000011e-01 -1.611360000000000015e-01 -1.096408999999999967e+00 -1.770523000000000069e+00 -7.311499999999999666e-01 1.028089999999999976e-01 4.600580000000000225e-01 2.545872999999999831e+00 -2.890059999999999851e-01 9.042649999999999855e-01 6.780399999999999761e-01 -1.334011000000000058e+00 -8.505390000000000450e-01 -7.884849999999999914e-01 8.832099999999999673e-02 -2.257871000000000183e+00 1.040659000000000001e+00 -1.065868999999999955e+00 -2.212790000000000035e-01 -5.357920000000000460e-01 7.748540000000000427e-01 2.669610000000000039e-01 -9.913199999999999790e-01 -4.538519999999999777e-01 2.487864000000000075e+00 -9.901560000000000361e-01 1.353501999999999983e+00 -2.693729999999999736e-01 5.059399999999999453e-01 -5.927040000000000086e-01 1.413310999999999984e+00 1.436655999999999933e+00 3.816378999999999966e+00 -4.994870000000000143e-01 1.806550000000000100e-01 1.165640000000000009e-01 -1.171421000000000046e+00 -1.710342000000000029e+00 -2.273399999999999865e-01 -9.514850000000000252e-01 -3.345910000000000273e-01 -1.020699999999999941e-01 -1.430007999999999946e+00 -1.836092000000000057e+00 -2.557773000000000074e+00 1.662711000000000050e+00 1.588200000000000028e-02 4.545969999999999733e-01 3.573379999999999890e-01 -2.212469999999999992e-01 -5.851229999999999487e-01 1.183335999999999943e+00 7.898000000000000506e-03 -7.571930000000000049e-01 5.171339999999999826e-01 3.387620000000000076e-01 -3.508900000000000213e-02 -1.178040000000000059e-01 2.834789999999999810e-01 1.177350000000000063e-01 -2.605129999999999946e-01 -2.608730000000000215e-01 -1.637885999999999953e+00 -6.770880000000000232e-01 2.456490000000000062e-01 -4.482920000000000238e-01 1.483128999999999920e+00 6.607429999999999692e-01 -8.590280000000000138e-01 1.595620000000000038e+00 -1.207389999999999991e-01 3.446699999999999764e-02 3.687679999999999847e-01 -2.883470000000000200e-01 -1.305698000000000025e+00 -9.974340000000000428e-01 -2.677240000000000175e-01 -9.084179999999999477e-01 5.002269999999999772e-01 1.012693999999999983e+00 3.907900000000000262e-02 3.593600000000000266e-02 -9.481900000000000051e-02 -1.769581999999999988e+00 -5.701490000000000169e-01 -3.541719999999999868e-01 -3.417310000000000070e-01 1.210993999999999904e+00 -1.943948999999999927e+00 -1.162149999999999989e-01 -2.464610000000000134e-01 1.149175999999999975e+00 -1.939939999999999998e-01 8.819919999999999982e-01 -3.519849999999999923e-01 -7.759859999999999536e-01 -5.660450000000000204e-01 -3.483129999999999837e-01 1.403691999999999940e+00 3.044100000000000139e-01 -2.553529999999999966e-01 1.981902000000000053e+00 -1.601388999999999951e+00 9.590300000000000213e-02 -8.832640000000000491e-01 -7.669669999999999543e-01 9.077359999999999873e-01 1.016199999999999916e-02 1.051999999999999984e-03 -1.033738000000000046e+00 5.229679999999999884e-01 2.020969999999999989e-01 1.149882999999999988e+00 -8.965629999999999988e-01 -8.430250000000000243e-01 3.232539999999999858e-01 -4.339339999999999864e-01 6.946830000000000505e-01 -6.645969999999999933e-01 -4.934769999999999990e-01 2.358604999999999841e+00 4.703620000000000023e-01 9.917110000000000092e-01 1.334609999999999963e-01 7.986159999999999926e-01 2.107799999999999951e-02 -4.238109999999999933e-01 1.435009999999999897e+00 5.923349999999999449e-01 3.081300000000000011e-02 3.450380000000000114e-01 4.733350000000000057e-01 1.160373000000000099e+00 -2.570459999999999967e-01 -1.362819000000000003e+00 -1.423871000000000109e+00 9.522589999999999666e-01 1.979913999999999952e+00 6.956569999999999698e-01 2.045299999999999896e-02 -7.891029999999999989e-01 -1.157008999999999954e+00 9.266269999999999785e-01 1.037147999999999959e+00 -9.539899999999999769e-02 -3.132130000000000192e-01 3.283550000000000080e-01 -1.892759999999999998e-01 6.368999999999999662e-03 1.052152999999999894e+00 5.133399999999999769e-02 -6.260689999999999866e-01 2.557675000000000143e+00 -5.111449999999999605e-01 7.090000000000000469e-02 -5.073010000000000019e-01 4.535100000000000242e-02 -2.612380000000000257e-01 2.207659999999999900e-01 3.236280000000000268e-01 6.735989999999999478e-01 -1.116127000000000091e+00 -2.540350000000000108e-01 -3.051130000000000231e-01 -1.419966999999999979e+00 -3.334739999999999926e-01 -1.227119000000000071e+00 -4.159140000000000059e-01 -1.240688000000000013e+00 1.068692999999999893e+00 1.145369999999999999e-01 5.098599999999999799e-01 8.595049999999999635e-01 5.506349999999999856e-01 -6.738089999999999913e-01 -5.557050000000000045e-01 -1.453600000000000031e-02 -5.794200000000000461e-01 -1.337160000000000015e-01 -4.941659999999999942e-01 -7.364450000000000163e-01 -7.625159999999999716e-01 1.539031999999999956e+00 1.408169999999999977e-01 -1.008566000000000074e+00 1.228054999999999897e+00 1.551200000000000079e-01 3.985360000000000014e-01 -3.536699999999999844e-01 2.629239999999999911e-01 -7.076489999999999725e-01 4.085039999999999782e-01 9.160000000000000390e-04 -6.726259999999999462e-01 -6.054429999999999534e-01 -4.129760000000000097e-01 8.100340000000000318e-01 1.996040000000000036e-01 1.022416999999999909e+00 1.765690000000000037e-01 1.167286999999999964e+00 3.692100000000000243e-02 4.861849999999999783e-01 -2.194510000000000072e-01 7.980899999999999661e-01 -6.154579999999999496e-01 -1.172085000000000043e+00 4.675710000000000144e-01 7.561780000000000168e-01 9.287339999999999485e-01 7.424439999999999928e-01 -5.425600000000000422e-01 -4.808930000000000149e-01 -9.848600000000000410e-02 1.899135999999999935e+00 2.626990000000000158e+00 8.857580000000000453e-01 -7.089389999999999858e-01 -8.453600000000000003e-01 1.477359000000000089e+00 3.006099999999999883e-01 3.519769999999999843e-01