-9.038539143699999840e+02
-9.056208254800000077e+02
-9.127419767200000251e+02
-9.281989001199999620e+02
-9.142771461199999976e+02
-9.303415674499999568e+02
-9.230177103900000475e+02
-9.230545844399999851e+02
-9.170705769600000394e+02
-9.146846648399999822e+02
-8.974569104099999777e+02
-9.216224402200000441e+02
-9.091943895399999747e+02
-9.145514066199999661e+02
-9.154210778599999685e+02
-9.008063318299999764e+02
-9.194918342199999870e+02
-9.086675209700000551e+02
-9.241404764899999691e+02
-9.160992736399999785e+02
-9.171262634099999786e+02
-9.125189730199999758e+02
-9.101912315099999660e+02
-9.288318858600000567e+02
-9.026274689199999557e+02
-9.109850506499999483e+02
-9.297371498700000529e+02
-9.072265334999999595e+02
-9.298353398599999764e+02
-9.168189585699999498e+02
-9.134173032100000000e+02
-9.111957868900000221e+02
-9.087876658300000372e+02
-9.131726794300000165e+02
-9.172547288499999922e+02
-9.166805522399999973e+02
-9.100264418100000512e+02
-9.076316251399999828e+02
-9.102658466399999497e+02
-8.999816887099999576e+02
-9.186844062400000439e+02
-9.072428044199999704e+02
-9.236421484500000361e+02
-9.296479604200000040e+02
-9.186206951499999604e+02
-9.066749644699999635e+02
-9.295618437800000038e+02
-9.345935484200000474e+02
-9.136771468800000093e+02
-9.062689634600000090e+02
-9.096046031800000264e+02
-9.181813186800000040e+02
-9.101931997399999545e+02
-9.182611638900000344e+02
-9.047267307700000174e+02
-9.114047300299999961e+02
-8.955043581200000062e+02
-9.101590923200000134e+02
-9.288957338599999503e+02
-9.084517197500000520e+02
-9.159528914200000145e+02
-9.015810453799999777e+02
-9.050078255700000227e+02
-9.285865145699999630e+02
-9.058672459099999514e+02
-9.105011270899999545e+02
-9.199215346900000441e+02
-9.243085743399999501e+02
-9.157684906800000135e+02
-8.990433966499999769e+02
-9.203241464599999517e+02
-9.091213823699999921e+02
-9.077218011999999590e+02
-9.197256176800000276e+02
-9.310067215899999837e+02
-9.085244551900000261e+02
-9.098613236099999995e+02
-9.192709793100000297e+02
-9.042848635799999784e+02
-9.130468711600000233e+02
-9.144450611099999833e+02
-8.988113812799999778e+02
-9.178268234500000062e+02
-9.240315982900000336e+02
-9.146139709100000346e+02
-9.110986264099999516e+02
-9.077815980100000388e+02
-9.063274568199999521e+02
-9.080843023099999982e+02
-9.318421253899999783e+02
-9.338218463399999791e+02
-9.033301167500000020e+02
-9.006343000900000106e+02
-9.083580850600000076e+02
-9.050367355700000189e+02
-9.156295032399999627e+02
-9.148178646000000072e+02
-9.119146594699999469e+02
-9.182491365800000267e+02
-8.971475173600000517e+02
-9.133343396999999868e+02
-9.128134424200000012e+02
-9.142955567200000360e+02
-9.282293007600000010e+02
-9.065404685700000300e+02
-9.049447809600000028e+02
-9.059813760199999706e+02
-9.252288720400000557e+02
-9.069709882600000128e+02
-8.999080947300000162e+02
-9.267955581799999436e+02
-9.287925886499999706e+02
-9.204121727100000498e+02
-9.001651276799999550e+02
-9.127510631999999760e+02
-9.313990655000000061e+02
-9.146220892000000049e+02
-9.174395838399999548e+02
-9.144945892199999662e+02
-9.154790691499999866e+02
-9.113454446499999904e+02
-9.213542261000000053e+02
-9.192148317500000303e+02
-9.042240390499999876e+02
-9.033639724399999977e+02
-9.123146712899999784e+02
-9.046095000799999752e+02
-9.152998312700000270e+02
-9.201265975600000502e+02
-9.096951778300000342e+02
-9.285391961300000503e+02
-9.039962005300000101e+02
-9.139081835099999580e+02
-9.265570328100000097e+02
-9.363409769899999446e+02
-9.021835506899999473e+02
-9.115284211800000094e+02
-9.033643614500000467e+02
-9.302476880499999652e+02
-8.938732978699999876e+02
-9.215331055299999434e+02
-9.132033265400000346e+02
-9.361108554300000151e+02
-9.070275002099999710e+02
-9.110729554900000267e+02
-9.147425912899999503e+02
-9.419190427099999852e+02
-9.105425113799999508e+02
-9.043710932999999841e+02
-9.110073233199999549e+02
-9.161929937600000358e+02
-9.301960369500000070e+02
-9.082232934400000204e+02
-9.241337069100000008e+02
-9.217261486899999454e+02
-9.149430392900000015e+02
-9.088360075499999766e+02
-9.138339906800000563e+02
-9.087697312200000397e+02
-9.243305600999999569e+02
-9.046484230500000194e+02
-9.200578327800000125e+02
-9.169983298399999967e+02
-9.064735940599999822e+02
-9.189307668999999805e+02
-9.161345720299999584e+02
-9.085655632100000503e+02
-9.138556224699999575e+02
-9.054551789399999961e+02
-9.059068292800000108e+02
-9.081286787300000469e+02
-8.997735959999999977e+02
-9.105182139900000493e+02
-9.043716115199999876e+02
-8.978986304600000494e+02
-9.002639496100000542e+02
-9.106918509299999869e+02
-9.044209438399999499e+02
-9.092032099299999572e+02
-9.406520699999999806e+02
-9.173134203500000012e+02
-9.280432791299999735e+02
-9.172285745100000440e+02
-9.127130153900000096e+02
-9.273436762100000124e+02
-9.204817958400000180e+02
-9.020320175900000095e+02
-9.074099381900000481e+02
-9.137113421400000561e+02
-9.281980065699999614e+02
-9.141877075200000036e+02
-9.124332247300000063e+02
-9.271065589300000056e+02
-9.105630184499999586e+02
-9.059231652800000347e+02
-9.034770791800000325e+02
-8.987689731299999494e+02
-9.011516068399999995e+02
-9.044001754299999902e+02
-9.022645812299999761e+02
