1.029142312900000000e+01 0.000000000000000000e+00 0.000000000000000000e+00 1.277429999999999972e-03 1.039431607600000085e+01 0.000000000000000000e+00 -1.791497721000000043e+00 -9.127988999999999548e-03 1.050079007599999947e+01
1.050306507200000006e+01 0.000000000000000000e+00 0.000000000000000000e+00 1.303700000000000084e-03 1.060807400100000031e+01 0.000000000000000000e+00 -1.828339667999999918e+00 -9.315705000000000513e-03 1.071673762600000046e+01
1.050831251700000024e+01 0.000000000000000000e+00 0.000000000000000000e+00 7.580372000000000152e-03 1.061694742899999966e+01 0.000000000000000000e+00 -1.819926597999999895e+00 -1.230796299999999989e-02 1.073211058699999931e+01
1.054291786099999939e+01 0.000000000000000000e+00 0.000000000000000000e+00 7.605335000000000394e-03 1.065191052299999974e+01 0.000000000000000000e+00 -1.825919870999999972e+00 -1.234849499999999926e-02 1.076745292899999917e+01
1.049175059999999959e+01 0.000000000000000000e+00 0.000000000000000000e+00 1.302296000000000096e-03 1.059664640799999979e+01 0.000000000000000000e+00 -1.826370081000000090e+00 -9.305670000000000261e-03 1.070519297399999914e+01
1.041779762200000015e+01 0.000000000000000000e+00 0.000000000000000000e+00 1.293117000000000094e-03 1.052195405299999997e+01 0.000000000000000000e+00 -1.813496584999999994e+00 -9.240076999999999319e-03 1.062973550999999972e+01
1.038221707699999996e+01 0.000000000000000000e+00 0.000000000000000000e+00 7.489410999999999638e-03 1.048954841499999979e+01 0.000000000000000000e+00 -1.798088225999999956e+00 -1.216027199999999975e-02 1.060332966200000016e+01
1.046840553400000040e+01 0.000000000000000000e+00 0.000000000000000000e+00 1.299398000000000003e-03 1.057306793899999953e+01 0.000000000000000000e+00 -1.822306246999999990e+00 -9.284963999999999718e-03 1.068137298000000079e+01
1.063038401000000022e+01 0.000000000000000000e+00 0.000000000000000000e+00 1.319503999999999989e-03 1.073666586400000078e+01 0.000000000000000000e+00 -1.850502936999999903e+00 -9.428630999999999818e-03 1.084664671800000058e+01
1.048906221200000033e+01 0.000000000000000000e+00 0.000000000000000000e+00 1.301962000000000041e-03 1.059393114100000055e+01 0.000000000000000000e+00 -1.825902095000000003e+00 -9.303284999999999680e-03 1.070244989400000080e+01
1.036660560199999992e+01 0.000000000000000000e+00 0.000000000000000000e+00 7.478148999999999907e-03 1.047377554800000077e+01 0.000000000000000000e+00 -1.795384485999999891e+00 -1.214198699999999992e-02 1.058738570500000087e+01
1.046984651200000016e+01 0.000000000000000000e+00 0.000000000000000000e+00 7.552623999999999969e-03 1.057808376300000042e+01 0.000000000000000000e+00 -1.813264699999999952e+00 -1.226290900000000066e-02 1.069282536200000067e+01
1.036061826399999930e+01 0.000000000000000000e+00 0.000000000000000000e+00 7.473829999999999883e-03 1.046772631300000000e+01 0.000000000000000000e+00 -1.794347544000000072e+00 -1.213497399999999976e-02 1.058127085399999956e+01
1.037940491700000045e+01 0.000000000000000000e+00 0.000000000000000000e+00 1.288351000000000079e-03 1.048317750000000004e+01 0.000000000000000000e+00 -1.806813307000000091e+00 -9.206024999999999625e-03 1.059056175000000088e+01
1.043684937299999937e+01 0.000000000000000000e+00 0.000000000000000000e+00 7.528820999999999777e-03 1.054474549999999944e+01 0.000000000000000000e+00 -1.807549950999999933e+00 -1.222426100000000015e-02 1.065912547499999974e+01
1.043864363099999970e+01 0.000000000000000000e+00 0.000000000000000000e+00 1.295703999999999953e-03 1.054300847800000085e+01 0.000000000000000000e+00 -1.817125391000000034e+00 -9.258565999999999324e-03 1.065100560600000001e+01
1.030839360000000049e+01 0.000000000000000000e+00 0.000000000000000000e+00 7.436156999999999663e-03 1.041496175099999988e+01 0.000000000000000000e+00 -1.785302793999999915e+00 -1.207380599999999943e-02 1.052793394899999946e+01
1.036103238299999951e+01 0.000000000000000000e+00 0.000000000000000000e+00 7.474129000000000363e-03 1.046814471399999924e+01 0.000000000000000000e+00 -1.794419264999999930e+00 -1.213546000000000069e-02 1.058169379299999946e+01
1.046341450199999912e+01 0.000000000000000000e+00 0.000000000000000000e+00 7.547983999999999770e-03 1.057158525900000079e+01 0.000000000000000000e+00 -1.812150745999999923e+00 -1.225537600000000012e-02 1.068625636800000045e+01
1.047981125899999988e+01 0.000000000000000000e+00 0.000000000000000000e+00 1.300813999999999963e-03 1.058458769799999999e+01 0.000000000000000000e+00 -1.824291719000000089e+00 -9.295080000000000703e-03 1.069301074100000015e+01
1.058978580900000033e+01 0.000000000000000000e+00 0.000000000000000000e+00 7.639143999999999622e-03 1.069926299199999953e+01 0.000000000000000000e+00 -1.834036894999999889e+00 -1.240338900000000077e-02 1.081531903499999991e+01
1.039337026299999955e+01 0.000000000000000000e+00 0.000000000000000000e+00 1.290085000000000060e-03 1.049728247000000003e+01 0.000000000000000000e+00 -1.809244349000000085e+00 -9.218410999999999272e-03 1.060481120400000066e+01
1.055342839999999960e+01 0.000000000000000000e+00 0.000000000000000000e+00 7.612917000000000295e-03 1.066252972000000021e+01 0.000000000000000000e+00 -1.827740184000000045e+00 -1.236080500000000075e-02 1.077818731400000019e+01
1.028931598199999975e+01 0.000000000000000000e+00 0.000000000000000000e+00 7.422395000000000034e-03 1.039568690800000006e+01 0.000000000000000000e+00 -1.781998755999999906e+00 -1.205146099999999942e-02 1.050845003000000055e+01
1.043299616200000024e+01 0.000000000000000000e+00 0.000000000000000000e+00 7.526040999999999807e-03 1.054085245399999948e+01 0.000000000000000000e+00 -1.806882615999999997e+00 -1.221974800000000076e-02 1.065519020099999992e+01
1.037713741800000022e+01 0.000000000000000000e+00 0.000000000000000000e+00 1.288070000000000100e-03 1.048088732999999984e+01 0.000000000000000000e+00 -1.806418588000000103e+00 -9.204013000000000472e-03 1.058824812099999946e+01
1.031017598799999924e+01 0.000000000000000000e+00 0.000000000000000000e+00 7.437441999999999838e-03 1.041676256500000086e+01 0.000000000000000000e+00 -1.785611484999999998e+00 -1.207589300000000074e-02 1.052975429700000021e+01
1.035727989599999965e+01 0.000000000000000000e+00 0.000000000000000000e+00 7.471422000000000133e-03 1.046435343299999943e+01 0.000000000000000000e+00 -1.793769374000000028e+00 -1.213106400000000043e-02 1.057786138700000045e+01
1.043740887100000059e+01 0.000000000000000000e+00 0.000000000000000000e+00 1.295551000000000038e-03 1.054176137400000002e+01 0.000000000000000000e+00 -1.816910448000000011e+00 -9.257470999999999756e-03 1.064974572700000088e+01
1.034215354100000006e+01 0.000000000000000000e+00 0.000000000000000000e+00 7.460510000000000058e-03 1.044907070200000021e+01 0.000000000000000000e+00 -1.791149652999999953e+00 -1.211334700000000000e-02 1.056241288300000036e+01
1.042500573499999916e+01 0.000000000000000000e+00 0.000000000000000000e+00 1.294011000000000076e-03 1.052923423100000022e+01 0.000000000000000000e+00 -1.814751350000000096e+00 -9.246469999999999689e-03 1.063709026299999927e+01
1.044060676600000015e+01 0.000000000000000000e+00 0.000000000000000000e+00 7.531531000000000163e-03 1.054854173700000075e+01 0.000000000000000000e+00 -1.808200690999999916e+00 -1.222866199999999952e-02 1.066296288999999931e+01
1.053064219900000076e+01 0.000000000000000000e+00 0.000000000000000000e+00 7.596480000000000073e-03 1.063950795599999921e+01 0.000000000000000000e+00 -1.823793859000000017e+00 -1.233411700000000034e-02 1.075491582999999984e+01
1.039475280399999946e+01 0.000000000000000000e+00 0.000000000000000000e+00 7.498453000000000410e-03 1.050221373599999986e+01 0.000000000000000000e+00 -1.800259279000000046e+00 -1.217495499999999946e-02 1.061613236500000035e+01
1.041116769099999928e+01 0.000000000000000000e+00 0.000000000000000000e+00 1.292294000000000038e-03 1.051525783599999997e+01 0.000000000000000000e+00 -1.812342467999999984e+00 -9.234196999999999544e-03 1.062297069999999977e+01
1.033353414699999995e+01 0.000000000000000000e+00 0.000000000000000000e+00 7.454292000000000383e-03 1.044036220099999923e+01 0.000000000000000000e+00 -1.789656866000000068e+00 -1.210325200000000011e-02 1.055360991999999953e+01
1.041376575199999976e+01 0.000000000000000000e+00 0.000000000000000000e+00 7.512168999999999965e-03 1.052142324000000073e+01 0.000000000000000000e+00 -1.803552116999999955e+00 -1.219722399999999957e-02 1.063555023600000027e+01
1.041062979300000002e+01 0.000000000000000000e+00 0.000000000000000000e+00 7.509906999999999694e-03 1.051825486199999915e+01 0.000000000000000000e+00 -1.803009002000000027e+00 -1.219355100000000039e-02 1.063234749100000087e+01
1.033436940100000001e+01 0.000000000000000000e+00 0.000000000000000000e+00 1.282761000000000101e-03 1.043769172100000020e+01 0.000000000000000000e+00 -1.798973670000000080e+00 -9.166080000000000061e-03 1.054461003800000007e+01
1.037375161900000009e+01 0.000000000000000000e+00 0.000000000000000000e+00 7.483303999999999651e-03 1.048099544099999925e+01 0.000000000000000000e+00 -1.796622100000000000e+00 -1.215035700000000052e-02 1.059468391300000079e+01
1.040737762000000011e+01 0.000000000000000000e+00 0.000000000000000000e+00 7.507561000000000269e-03 1.051496906799999920e+01 0.000000000000000000e+00 -1.802445760999999980e+00 -1.218974199999999994e-02 1.062902605500000064e+01
1.045636128900000017e+01 0.000000000000000000e+00 0.000000000000000000e+00 7.542896000000000323e-03 1.056445912999999948e+01 0.000000000000000000e+00 -1.810929205000000097e+00 -1.224711399999999992e-02 1.067905294200000021e+01
1.059474462800000083e+01 0.000000000000000000e+00 0.000000000000000000e+00 7.642720999999999890e-03 1.070427307499999969e+01 0.000000000000000000e+00 -1.834895708999999986e+00 -1.240919700000000028e-02 1.082038346300000065e+01
1.043758754699999969e+01 0.000000000000000000e+00 0.000000000000000000e+00 7.529352999999999914e-03 1.054549130500000054e+01 0.000000000000000000e+00 -1.807677795000000032e+00 -1.222512499999999988e-02 1.065987937100000060e+01
1.049671079700000043e+01 0.000000000000000000e+00 0.000000000000000000e+00 1.302912000000000037e-03 1.060165619600000042e+01 0.000000000000000000e+00 -1.827233536000000047e+00 -9.310069000000000677e-03 1.071025408000000034e+01
1.037951286300000042e+01 0.000000000000000000e+00 0.000000000000000000e+00 1.288363999999999959e-03 1.048328652600000055e+01 0.000000000000000000e+00 -1.806832098000000109e+00 -9.206119999999999928e-03 1.059067189199999959e+01
1.031581023000000030e+01 0.000000000000000000e+00 0.000000000000000000e+00 7.441506999999999983e-03 1.042245505400000027e+01 0.000000000000000000e+00 -1.786587275000000030e+00 -1.208249299999999971e-02 1.053550853199999970e+01
1.050821309700000050e+01 0.000000000000000000e+00 0.000000000000000000e+00 1.304339000000000063e-03 1.061327349499999961e+01 0.000000000000000000e+00 -1.829235818999999985e+00 -9.320270999999999764e-03 1.072199038199999954e+01
1.035210978599999976e+01 0.000000000000000000e+00 0.000000000000000000e+00 1.284963000000000077e-03 1.045560947399999918e+01 0.000000000000000000e+00 -1.802061858999999933e+00 -9.181814999999999422e-03 1.056271133099999915e+01
1.034119996499999949e+01 0.000000000000000000e+00 0.000000000000000000e+00 1.283609000000000009e-03 1.044459057799999968e+01 0.000000000000000000e+00 -1.800162712000000109e+00 -9.172138999999999293e-03 1.055157956300000066e+01
1.056283488000000048e+01 0.000000000000000000e+00 0.000000000000000000e+00 1.311118999999999913e-03 1.066844138299999933e+01 0.000000000000000000e+00 -1.838744203000000077e+00 -9.368717999999999838e-03 1.077772338099999949e+01
1.039166416199999965e+01 0.000000000000000000e+00 0.000000000000000000e+00 7.496224999999999590e-03 1.049909316399999959e+01 0.000000000000000000e+00 -1.799724359000000051e+00 -1.217133700000000082e-02 1.061297794400000072e+01
1.030363524000000019e+01 0.000000000000000000e+00 0.000000000000000000e+00 7.432723999999999928e-03 1.041015419900000083e+01 0.000000000000000000e+00 -1.784478698000000030e+00 -1.206823299999999939e-02 1.052307424900000044e+01
1.029680611400000068e+01 0.000000000000000000e+00 0.000000000000000000e+00 1.278098000000000081e-03 1.039975287899999934e+01 0.000000000000000000e+00 -1.792434773999999953e+00 -9.132763999999999813e-03 1.050628257099999985e+01
1.047694778400000004e+01 0.000000000000000000e+00 0.000000000000000000e+00 7.557745999999999735e-03 1.058525844799999938e+01 0.000000000000000000e+00 -1.814494564000000087e+00 -1.227122699999999914e-02 1.070007787199999960e+01
1.032677069800000069e+01 0.000000000000000000e+00 0.000000000000000000e+00 1.281818000000000107e-03 1.043001704699999976e+01 0.000000000000000000e+00 -1.797650911999999934e+00 -9.159340999999999663e-03 1.053685674900000002e+01
1.042673832200000028e+01 0.000000000000000000e+00 0.000000000000000000e+00 7.521527000000000074e-03 1.053452992000000066e+01 0.000000000000000000e+00 -1.805798825999999968e+00 -1.221241799999999919e-02 1.064879908600000036e+01
1.038820349999999948e+01 0.000000000000000000e+00 0.000000000000000000e+00 1.289442999999999926e-03 1.049206404999999975e+01 0.000000000000000000e+00 -1.808344935999999903e+00 -9.213828999999999769e-03 1.059953932900000062e+01
1.054560919699999921e+01 0.000000000000000000e+00 0.000000000000000000e+00 1.308981000000000077e-03 1.065104347900000015e+01 0.000000000000000000e+00 -1.835745611999999971e+00 -9.353439999999999324e-03 1.076014726200000027e+01
1.039214216599999929e+01 0.000000000000000000e+00 0.000000000000000000e+00 1.289931999999999928e-03 1.049604209499999996e+01 0.000000000000000000e+00 -1.809030565999999896e+00 -9.217322000000000015e-03 1.060355812299999911e+01
1.042654320800000001e+01 0.000000000000000000e+00 0.000000000000000000e+00 7.521385999999999697e-03 1.053433278900000047e+01 0.000000000000000000e+00 -1.805765033999999991e+00 -1.221218999999999950e-02 1.064859981699999913e+01
1.023786909500000064e+01 0.000000000000000000e+00 0.000000000000000000e+00 7.385281999999999958e-03 1.034370816400000059e+01 0.000000000000000000e+00 -1.773088709000000041e+00 -1.199120300000000063e-02 1.045590746599999932e+01
1.037709222199999992e+01 0.000000000000000000e+00 0.000000000000000000e+00 7.485714000000000083e-03 1.048437057900000013e+01 0.000000000000000000e+00 -1.797200656000000007e+00 -1.215427000000000000e-02 1.059809566200000042e+01
1.044288702000000058e+01 0.000000000000000000e+00 0.000000000000000000e+00 7.533175999999999935e-03 1.055084556399999940e+01 0.000000000000000000e+00 -1.808595606999999994e+00 -1.223133300000000048e-02 1.066529170799999982e+01
1.035497567200000013e+01 0.000000000000000000e+00 0.000000000000000000e+00 7.469759000000000294e-03 1.046202538900000079e+01 0.000000000000000000e+00 -1.793370308000000080e+00 -1.212836599999999980e-02 1.057550809099999967e+01
1.031390640300000072e+01 0.000000000000000000e+00 0.000000000000000000e+00 7.440132999999999816e-03 1.042053154499999934e+01 0.000000000000000000e+00 -1.786257551999999915e+00 -1.208026300000000081e-02 1.053356415900000087e+01
1.048634265299999946e+01 0.000000000000000000e+00 0.000000000000000000e+00 1.301625000000000048e-03 1.059118439200000061e+01 0.000000000000000000e+00 -1.825428682999999941e+00 -9.300872999999999433e-03 1.069967500799999982e+01
1.039753723699999988e+01 0.000000000000000000e+00 0.000000000000000000e+00 7.500462000000000275e-03 1.050502695499999994e+01 0.000000000000000000e+00 -1.800741512999999960e+00 -1.217821600000000039e-02 1.061897609899999928e+01
1.047801662700000058e+01 0.000000000000000000e+00 0.000000000000000000e+00 1.300591000000000030e-03 1.058277512299999934e+01 0.000000000000000000e+00 -1.823979315000000101e+00 -9.293488000000000790e-03 1.069117959999999989e+01
1.032562187000000087e+01 0.000000000000000000e+00 0.000000000000000000e+00 7.448584999999999755e-03 1.043236812700000016e+01 0.000000000000000000e+00 -1.788286545000000061e+00 -1.209398499999999980e-02 1.054552913400000058e+01
1.033684717200000058e+01 0.000000000000000000e+00 0.000000000000000000e+00 7.456682000000000067e-03 1.044370947600000044e+01 0.000000000000000000e+00 -1.790230647000000008e+00 -1.210713199999999962e-02 1.055699350299999928e+01
1.044427046999999931e+01 0.000000000000000000e+00 0.000000000000000000e+00 1.296403000000000008e-03 1.054869157399999935e+01 0.000000000000000000e+00 -1.818104893000000111e+00 -9.263557000000000388e-03 1.065674691599999946e+01
1.035496330399999998e+01 0.000000000000000000e+00 0.000000000000000000e+00 7.469751000000000168e-03 1.046201289300000070e+01 0.000000000000000000e+00 -1.793368166000000041e+00 -1.212835100000000076e-02 1.057549545900000076e+01
1.044435248099999924e+01 0.000000000000000000e+00 0.000000000000000000e+00 1.296412999999999949e-03 1.054877440499999963e+01 0.000000000000000000e+00 -1.818119169000000035e+00 -9.263630000000000128e-03 1.065683059600000071e+01
1.044517543799999970e+01 0.000000000000000000e+00 0.000000000000000000e+00 1.296515000000000037e-03 1.054960559000000053e+01 0.000000000000000000e+00 -1.818262427000000070e+00 -9.264359999999999262e-03 1.065767029500000085e+01
1.061191181899999947e+01 0.000000000000000000e+00 0.000000000000000000e+00 1.317210999999999990e-03 1.071800898999999951e+01 0.000000000000000000e+00 -1.847287357999999990e+00 -9.412247000000000322e-03 1.082779873199999976e+01
1.052527525400000030e+01 0.000000000000000000e+00 0.000000000000000000e+00 1.306457000000000018e-03 1.063050623900000069e+01 0.000000000000000000e+00 -1.832205944999999891e+00 -9.335404999999999745e-03 1.073939964799999913e+01
1.060115179900000015e+01 0.000000000000000000e+00 0.000000000000000000e+00 7.647343000000000023e-03 1.071074648399999951e+01 0.000000000000000000e+00 -1.836005362999999946e+00 -1.241670199999999995e-02 1.082692708999999986e+01
1.026441812700000078e+01 0.000000000000000000e+00 0.000000000000000000e+00 7.404433999999999669e-03 1.037053165999999926e+01 0.000000000000000000e+00 -1.777686716000000056e+00 -1.202229900000000018e-02 1.048302192000000055e+01
1.045292036799999913e+01 0.000000000000000000e+00 0.000000000000000000e+00 7.540413999999999624e-03 1.056098263600000031e+01 0.000000000000000000e+00 -1.810333273999999992e+00 -1.224308399999999956e-02 1.067553873800000019e+01
1.046199440200000019e+01 0.000000000000000000e+00 0.000000000000000000e+00 7.546958999999999786e-03 1.057015047800000040e+01 0.000000000000000000e+00 -1.811904799999999982e+00 -1.225371199999999994e-02 1.068480602400000024e+01
1.040390670700000086e+01 0.000000000000000000e+00 0.000000000000000000e+00 1.291391999999999931e-03 1.050792425700000088e+01 0.000000000000000000e+00 -1.811078500000000036e+00 -9.227756999999999626e-03 1.061556200000000061e+01
1.055994057300000044e+01 0.000000000000000000e+00 0.000000000000000000e+00 1.310760000000000007e-03 1.066551813899999956e+01 0.000000000000000000e+00 -1.838240370999999929e+00 -9.366150999999999643e-03 1.077477019200000008e+01
1.036344374699999982e+01 0.000000000000000000e+00 0.000000000000000000e+00 1.286370000000000005e-03 1.046705675099999944e+01 0.000000000000000000e+00 -1.804034837999999974e+00 -9.191868000000000608e-03 1.057427586800000086e+01
1.025612928700000026e+01 0.000000000000000000e+00 0.000000000000000000e+00 7.398454999999999962e-03 1.036215712899999986e+01 0.000000000000000000e+00 -1.776251178000000097e+00 -1.201259099999999955e-02 1.047455655000000085e+01
1.033883094099999944e+01 0.000000000000000000e+00 0.000000000000000000e+00 7.458112999999999722e-03 1.044571375299999971e+01 0.000000000000000000e+00 -1.790574214000000053e+00 -1.210945599999999935e-02 1.055901952099999974e+01
1.039594372100000008e+01 0.000000000000000000e+00 0.000000000000000000e+00 1.290403999999999987e-03 1.049988165799999962e+01 0.000000000000000000e+00 -1.809692328999999988e+00 -9.220693999999999765e-03 1.060743701700000052e+01
1.036168687400000010e+01 0.000000000000000000e+00 0.000000000000000000e+00 7.474600999999999988e-03 1.046880597100000010e+01 0.000000000000000000e+00 -1.794532615999999914e+00 -1.213622599999999996e-02 1.058236222300000051e+01
1.057222609799999979e+01 0.000000000000000000e+00 0.000000000000000000e+00 1.312285000000000057e-03 1.067792649399999938e+01 0.000000000000000000e+00 -1.840378996000000100e+00 -9.377048000000000674e-03 1.078730565200000058e+01
1.040465405399999987e+01 0.000000000000000000e+00 0.000000000000000000e+00 7.505595999999999796e-03 1.051221734499999982e+01 0.000000000000000000e+00 -1.801974068999999901e+00 -1.218655199999999980e-02 1.062624448400000077e+01
1.036545744800000080e+01 0.000000000000000000e+00 0.000000000000000000e+00 7.477321000000000314e-03 1.047261552500000015e+01 0.000000000000000000e+00 -1.795185637999999972e+00 -1.214064200000000010e-02 1.058621309900000007e+01
1.028716901299999975e+01 0.000000000000000000e+00 0.000000000000000000e+00 7.420846000000000039e-03 1.039351774400000039e+01 0.000000000000000000e+00 -1.781626924000000001e+00 -1.204894599999999961e-02 1.050625733599999911e+01
1.025567424299999963e+01 0.000000000000000000e+00 0.000000000000000000e+00 7.398125999999999661e-03 1.036169738199999912e+01 0.000000000000000000e+00 -1.776172368999999973e+00 -1.201205800000000080e-02 1.047409181499999953e+01
1.037787673400000088e+01 0.000000000000000000e+00 0.000000000000000000e+00 7.486279999999999671e-03 1.048516320100000065e+01 0.000000000000000000e+00 -1.797336524999999963e+00 -1.215518900000000027e-02 1.059889688099999994e+01
1.059467933900000070e+01 0.000000000000000000e+00 0.000000000000000000e+00 1.315072000000000029e-03 1.070060422100000075e+01 0.000000000000000000e+00 -1.844287583999999924e+00 -9.396962999999999497e-03 1.081021567800000049e+01
1.043789137199999928e+01 0.000000000000000000e+00 0.000000000000000000e+00 7.529572000000000001e-03 1.054579827000000058e+01 0.000000000000000000e+00 -1.807730413999999897e+00 -1.222548099999999985e-02 1.066018966500000076e+01
1.044492782700000078e+01 0.000000000000000000e+00 0.000000000000000000e+00 1.296484000000000091e-03 1.054935550299999925e+01 0.000000000000000000e+00 -1.818219323999999970e+00 -9.264140000000000569e-03 1.065741764700000083e+01
1.036489393899999989e+01 0.000000000000000000e+00 0.000000000000000000e+00 7.476914000000000303e-03 1.047204619000000037e+01 0.000000000000000000e+00 -1.795088044999999966e+00 -1.213998200000000055e-02 1.058563758899999918e+01
1.037684305500000015e+01 0.000000000000000000e+00 0.000000000000000000e+00 1.288033000000000060e-03 1.048059002399999962e+01 0.000000000000000000e+00 -1.806367346000000040e+00 -9.203752000000000807e-03 1.058794776999999954e+01
1.046542904999999912e+01 0.000000000000000000e+00 0.000000000000000000e+00 7.549436999999999988e-03 1.057362063300000088e+01 0.000000000000000000e+00 -1.812499644000000076e+00 -1.225773500000000051e-02 1.068831381999999941e+01
