-9.135593480400000317e+02
-9.076275368100000378e+02
-9.067289397700000109e+02
-9.168066967900000463e+02
-9.056108402500000238e+02
-9.122939944800000376e+02
-9.166315789899999800e+02
-9.076650991699999622e+02
-8.995225882800000363e+02
-9.170623561899999459e+02
-9.027436228799999753e+02
-9.067987629299999526e+02
-9.200633495499999981e+02
-9.018635156000000279e+02
-9.130764616899999737e+02
-9.086226715899999817e+02
-9.077060472699999991e+02
-9.097800738900000397e+02
-9.106447160999999824e+02
-9.125639034700000138e+02
-9.148199199499999850e+02
-9.072131089099999599e+02
-9.077543955800000504e+02
-9.062241849499999944e+02
-9.170318580699999984e+02
-9.077458391100000199e+02
-9.169222439699999541e+02
-9.123214868600000500e+02
-9.146046700299999657e+02
-9.067185416800000439e+02
-9.110877570200000264e+02
-8.931564783799999532e+02
-9.088663231900000028e+02
-9.041677176599999939e+02
-9.042766568199999710e+02
-9.118597465799999782e+02
-9.046687128800000437e+02
-9.092474031499999683e+02
-9.122492752499999824e+02
-9.092068321499999684e+02
-9.076164243700000043e+02
-9.151711585199999490e+02
-9.100014660699999922e+02
-9.127150865500000236e+02
-9.059237167999999656e+02
-9.013312017700000069e+02
-9.111605178999999453e+02
-9.128657702599999766e+02
-9.008751744300000155e+02
-9.098329905199999530e+02
