1.046055999999999919e+01 2.658910000000000107e+00 2.566520000000000135e+00 1.042570000000000086e+01 2.586100000000000065e+00 7.790540000000000020e+00 1.032740000000000080e+01 7.773679999999999701e+00 2.474680000000000213e+00 1.039300000000000068e+01 8.153050000000000352e+00 8.152240000000000819e+00 5.668199999999999683e+00 2.760740000000000194e+00 2.415970000000000173e+00 5.251979999999999649e+00 2.391379999999999839e+00 7.475730000000000430e+00 5.194040000000000212e+00 7.843160000000000132e+00 2.313989999999999991e+00 5.027910000000000323e+00 7.491299999999999848e+00 7.502399999999999736e+00 2.871900000000000119e+00 5.200590000000000046e+00 2.244540000000000202e+00 2.595200000000000173e+00 5.477649999999999686e+00 7.777050000000000018e+00 2.459389999999999965e+00 1.076355000000000040e+01 2.642729999999999801e+00 2.298979999999999801e+00 1.048874999999999957e+01 7.513200000000000323e+00 7.929700000000000415e+00 5.199659999999999727e+00 2.902979999999999894e+00 8.117250000000000298e+00 5.587019999999999875e+00 7.475710000000000299e+00 7.653909999999999769e+00 1.067714999999999925e+01 2.055029999999999912e+00 8.238659999999999428e+00 6.640999999999999681e-02 8.086159999999999570e+00 2.614599999999999813e+00 2.683149999999999924e+00 5.032269999999999577e+00 3.153020000000000156e+00 2.160470000000000113e+00 1.038408000000000087e+01 2.424659999999999815e+00 7.944899999999999629e+00 4.862610000000000099e+00 2.475480000000000125e+00 8.092819999999999681e+00 1.846299999999999886e-01 8.187319999999999709e+00 2.708320000000000061e+00 5.299249999999999794e+00 8.073850000000000193e+00 3.038670000000000204e+00 9.848380000000000578e+00 7.504749999999999588e+00 8.617240000000000677e+00 4.842310000000000336e+00 7.635860000000000092e+00 8.180300000000000793e+00 1.010443000000000069e+01 1.024750000000000050e+01 4.453000000000000014e-02 5.130790000000000184e+00 2.861500000000000155e-01 3.660499999999999865e-01 1.038451000000000057e+01 3.754600000000000160e-01 5.326430000000000220e+00 4.994620000000000282e+00 6.716600000000000348e-01 5.168029999999999902e+00 1.027637999999999963e+01 5.228690000000000282e+00 1.087454999999999927e+01 5.288579999999999615e+00 5.929330000000000211e+00 2.208600000000000008e-01 9.688470000000000582e+00 5.275070000000000370e+00 5.133449999999999847e+00 5.235540000000000305e+00 5.591599999999999682e+00 5.013189999999999813e+00 9.773179999999999978e+00 4.041019999999999612e+00 6.502360000000000362e+00 6.238480000000000025e+00 4.889260000000000161e+00 3.269060000000000077e+00 9.859849999999999781e+00 4.035739999999999661e+00 8.959099999999999842e-01 3.698129999999999917e+00 3.986099999999999977e+00 6.329139999999999766e+00 1.072400000000000020e+00 9.192619999999999791e+00 1.621779999999999999e+00 4.086330000000000240e+00 9.738810000000000855e+00 1.478299999999999947e+00 9.105819999999999581e+00 8.701439999999999841e+00 7.006920000000000037e+00 4.714470000000000383e+00 4.456889999999999574e+00 6.121600000000000374e-01 7.236399999999999499e-01 4.036319999999999908e+00 1.566489999999999938e+00 6.208590000000000053e+00 3.850470000000000059e+00 5.982949999999999768e+00 3.789079999999999782e+00 4.147319999999999673e+00 6.303899999999999615e+00 8.866170000000000329e+00 9.075910000000000366e+00 4.437499999999999778e-01 1.121159999999999934e+00 9.422290000000000276e+00 1.208390000000000075e+00 6.606849999999999667e+00 9.241030000000000300e+00 6.165980000000000238e+00 1.649070000000000036e+00 1.005328000000000088e+01 6.426890000000000214e+00 7.212860000000000049e+00 4.170420000000000016e+00 3.846010000000000151e+00 4.413949999999999818e+00 4.651939999999999742e+00 4.879000000000000004e-01 8.246069999999999567e+00 3.230350000000000055e+00 9.838100000000000733e+00 5.523049999999999571e+00 6.753510000000000346e+00 6.799680000000000391e+00 8.836209999999999454e+00 8.641370000000000218e+00 9.933809999999999363e+00 3.531419999999999781e+00 9.366649999999999920e+00 9.687649999999999650e+00 9.352090000000000458e+00 9.014469999999999317e+00 4.290849999999999831e+00 4.286129999999999995e+00 9.770419999999999661e+00 3.968690000000000051e+00 9.113739999999999952e+00 3.837950000000000195e+00 3.308800000000000185e+00 1.748860000000000081e+00 3.648789999999999978e+00 3.789229999999999876e+00 7.328199999999999825e+00 3.347329999999999917e+00 8.312699999999999534e+00 2.970089999999999897e+00 1.270669999999999966e+00 9.486599999999999477e-01 6.604949999999999655e+00 9.080870000000000886e+00 3.317800000000000082e+00 1.222120000000000095e+00 8.729020000000000223e+00 3.583849999999999980e+00 7.051919999999999966e+00 8.823150000000000048e+00 8.621470000000000411e+00 1.288480000000000070e+00 6.292919999999999625e+00 9.117029999999999745e+00 6.437479999999999869e+00 1.163489999999999913e+00 1.118030000000000079e+00 3.950439999999999952e+00 1.765139999999999931e+00 1.433470000000000022e+00 9.227830000000000865e+00 9.648999999999999799e-01 6.864740000000000286e+00 3.728689999999999838e+00 1.326929999999999943e+00 6.805920000000000414e+00 9.192140000000000200e+00 5.864609999999999879e+00 9.177049999999999486e+00 3.839010000000000034e+00 7.294360000000000177e+00 9.702180000000000248e+00 8.865040000000000475e+00 6.784040000000000070e+00 3.526130000000000209e+00 3.637620000000000076e+00 7.259900000000000020e+00 4.586389999999999745e+00 8.826739999999999142e+00 1.191740000000000022e+00 4.035800000000000054e+00 1.385340000000000016e+00 1.995389999999999997e+00 6.132319999999999993e+00 5.708409999999999762e+00 2.112979999999999858e+00 9.694549999999999557e+00 9.612899999999999778e-01 8.764730000000000132e+00 9.716319999999999624e+00 6.378449999999999953e+00 6.602030000000000065e+00 4.233699999999999797e+00 1.175329999999999986e+00 6.228439999999999976e+00 3.926089999999999858e+00 6.531430000000000291e+00 6.299820000000000420e+00 9.633119999999999905e+00 8.070599999999999996e-01 4.417769999999999975e+00 8.992399999999999949e+00 9.284119999999999706e+00 1.180889999999999995e+00 3.583120000000000083e+00 3.946299999999999919e+00 1.977659999999999973e+00 4.085820000000000007e+00 9.339520000000000266e+00 8.704899999999999860e-01 9.355359999999999232e+00 3.878810000000000091e+00 1.597169999999999979e+00 9.386710000000000775e+00 9.322910000000000252e+00 6.718600000000000350e+00 1.248350000000000071e+00 5.980999999999999872e+00 6.804529999999999745e+00 1.428050000000000042e+00 4.853700000000000236e-01 6.433769999999999989e+00 6.046070000000000277e+00 3.543089999999999851e+00 8.923560000000000159e+00 6.878860000000000419e+00 9.367390000000000327e+00 1.377420000000000089e+00 1.375590000000000090e+00 1.486420000000000075e+00 1.085439999999999960e+00 3.743180000000000174e+00 6.481049999999999756e+00 1.503749999999999920e+00 6.697940000000000005e+00 1.474849999999999994e+00 1.197189999999999976e+00 8.738189999999999458e+00 6.729809999999999626e+00 6.349969999999999892e+00 1.210630000000000095e+00 3.392469999999999875e+00 6.922229999999999883e+00 1.751209999999999933e+00 8.645500000000000185e+00 6.840419999999999945e+00 7.260690000000000310e+00 1.299490000000000034e+00 6.730109999999999815e+00 6.592920000000000336e+00 6.422699999999999854e+00
1.022605000000000075e+01 2.716569999999999929e+00 2.431519999999999904e+00 1.445400000000000018e-01 2.531569999999999876e+00 7.532409999999999606e+00 1.028214999999999968e+01 7.872329999999999828e+00 2.475480000000000125e+00 2.982999999999999888e-02 7.818970000000000198e+00 7.364010000000000389e+00 5.173630000000000173e+00 2.529329999999999856e+00 3.023670000000000080e+00 5.044660000000000366e+00 2.563629999999999853e+00 8.021229999999999194e+00 5.410639999999999894e+00 7.849370000000000402e+00 2.637189999999999923e+00 5.225419999999999732e+00 8.221470000000000056e+00 7.296730000000000160e+00 2.862169999999999881e+00 5.287600000000000300e+00 2.517980000000000107e+00 2.478460000000000107e+00 5.075359999999999872e+00 8.003199999999999648e+00 2.851900000000000102e+00 1.005278999999999989e+01 2.743149999999999977e+00 2.789280000000000204e+00 1.068196000000000012e+01 7.609009999999999607e+00 7.097470000000000390e+00 4.777910000000000323e+00 2.376720000000000166e+00 8.215099999999999625e+00 5.770660000000000345e+00 7.521740000000000315e+00 8.041040000000000632e+00 1.065656000000000070e+01 2.397899999999999920e+00 8.112790000000000390e+00 2.761600000000000166e-01 7.721549999999999692e+00 2.666380000000000194e+00 2.597129999999999939e+00 5.276150000000000340e+00 2.599250000000000060e+00 2.193090000000000206e+00 2.980900000000000216e-01 2.650419999999999998e+00 7.840080000000000382e+00 5.157440000000000246e+00 2.531989999999999963e+00 8.008680000000000021e+00 1.020167000000000002e+01 7.788359999999999950e+00 2.735910000000000064e+00 5.355489999999999640e+00 7.665899999999999714e+00 2.281899999999999817e+00 4.700000000000000185e-03 7.992659999999999876e+00 7.548750000000000071e+00 4.464290000000000092e+00 7.715670000000000250e+00 7.887760000000000105e+00 1.024647000000000041e+01 3.390099999999999780e-01 1.049806000000000061e+01 4.836020000000000429e+00 2.487499999999999989e-01 1.026936000000000071e+01 1.008652999999999977e+01 1.654599999999999960e-01 4.976379999999999804e+00 5.035650000000000404e+00 1.002368000000000059e+01 5.230909999999999727e+00 1.026167000000000051e+01 6.155479999999999841e+00 1.040085999999999977e+01 5.156179999999999986e+00 4.957679999999999865e+00 1.047586000000000084e+01 1.025536999999999921e+01 4.922170000000000378e+00 5.452589999999999826e+00 5.193279999999999674e+00 5.388440000000000119e+00 5.461750000000000327e+00 9.708460000000000534e+00 4.227140000000000342e+00 3.975220000000000198e+00 4.078649999999999665e+00 4.142660000000000231e+00 4.069840000000000124e+00 9.289559999999999818e+00 3.949790000000000134e+00 8.905549999999999855e+00 4.085069999999999979e+00 2.069329999999999892e+00 9.788909999999999556e+00 7.039199999999999902e-01 8.600350000000000605e+00 4.548890000000000100e+00 3.941180000000000128e+00 9.871969999999999246e+00 4.923729999999999940e+00 8.363329999999999487e+00 9.042049999999999699e+00 9.191760000000000375e+00 4.371839999999999726e+00 7.449060000000000237e+00 8.653740000000000876e+00 2.152730000000000032e+00 3.596880000000000077e+00 1.817250000000000032e+00 6.868450000000000166e+00 4.027730000000000032e+00 5.877220000000000333e+00 1.046280000000000099e+00 4.010229999999999961e+00 6.888779999999999681e+00 6.283059999999999867e+00 9.377050000000000551e+00 1.080710000000000059e+00 8.032899999999999485e-01 9.330249999999999488e+00 1.714110000000000023e+00 6.096440000000000303e+00 1.005977999999999994e+01 7.257749999999999702e+00 7.779300000000000104e-01 9.233790000000000830e+00 6.832589999999999719e+00 5.954460000000000086e+00 4.868310000000000137e+00 1.555509999999999948e+00 4.770290000000000141e+00 3.837639999999999940e+00 1.262909999999999977e+00 9.017670000000000741e+00 3.739500000000000046e+00 6.526720000000000077e+00 3.970180000000000042e+00 4.153129999999999988e+00 6.731889999999999930e+00 8.850120000000000431e+00 1.025164999999999971e+01 9.064200000000000035e-01 3.417219999999999924e+00 8.911820000000000519e+00 1.948409999999999975e+00 8.828440000000000509e+00 8.840490000000000848e+00 6.818329999999999558e+00 3.180559999999999832e+00 8.850369999999999848e+00 7.500630000000000130e+00 8.649609999999999133e+00 4.785549999999999748e+00 2.769999999999999893e-02 2.160890000000000200e+00 3.534349999999999881e+00 4.256350000000000300e+00 6.419859999999999900e+00 1.002440999999999960e+01 9.794859999999999900e+00 1.717279999999999918e+00 4.225450000000000372e+00 9.858900000000000219e+00 6.473349999999999937e+00 8.726219999999999644e+00 4.131190000000000140e+00 1.053039999999999976e+00 8.645580000000000709e+00 4.005709999999999660e+00 6.602570000000000050e+00 6.416240000000000165e+00 9.018800000000000150e-01 9.175010000000000332e+00 9.646430000000000504e+00 9.915910000000000224e+00 7.002620000000000289e+00 2.877540000000000209e+00 1.070079999999999920e+00 3.898899999999999810e+00 1.610239999999999894e+00 5.579600000000000115e-01 8.970950000000000202e+00 1.351720000000000033e+00 5.969439999999999635e+00 3.989599999999999813e+00 1.662690000000000001e+00 6.391879999999999562e+00 9.273680000000000589e+00 7.413499999999999979e+00 7.212100000000000177e-01 4.063480000000000203e+00 3.804670000000000218e+00 9.495720000000000383e+00 8.829810000000000159e+00 6.835009999999999586e+00 6.523920000000000385e+00 1.022389999999999910e+00 6.662469999999999892e+00 6.170250000000000234e+00 6.097450000000000259e+00 1.003989999999999938e+00 4.707749999999999879e+00 1.467980000000000063e+00 1.168520000000000003e+00 3.733639999999999848e+00 6.180450000000000443e+00 6.005230000000000068e+00 8.771630000000000038e+00 9.632329999999999615e+00 1.482299999999999951e+00 8.933529999999999305e+00 6.394479999999999720e+00 3.443859999999999921e+00 3.318589999999999929e+00 1.829210000000000003e+00 6.571760000000000268e+00 3.672909999999999897e+00 3.994730000000000114e+00 3.888599999999999834e+00 8.588200000000000500e+00 1.384230000000000071e+00 6.872939999999999827e+00 9.641560000000000130e+00 6.839640000000000164e+00 1.198939999999999895e+00 3.568299999999999805e+00 3.882130000000000081e+00 1.331210000000000004e+00 3.095590000000000064e+00 8.973509999999999209e+00 1.402619999999999978e+00 8.990170000000000883e+00 3.754690000000000083e+00 7.563900000000000068e-01 8.885690000000000310e+00 8.945119999999999294e+00 6.193970000000000198e+00 3.839480000000000004e+00 1.080689999999999928e+00 6.716689999999999827e+00 3.907300000000000217e+00 8.750989999999999824e+00 6.133230000000000182e+00 8.422430000000000305e+00 5.048399999999999999e+00 8.347260000000000346e+00 9.855380000000000251e+00 9.752250000000000085e+00 1.035360000000000058e+00 2.136530000000000040e+00 9.395799999999999708e-01 1.691270000000000051e+00 1.083129999999999926e+00 6.183799999999999741e+00 1.997360000000000024e+00 7.353299999999999947e+00 1.763870000000000049e+00 1.607339999999999991e+00 6.332629999999999981e+00 6.766460000000000363e+00 7.245980000000000310e+00 1.704309999999999992e+00 1.973400000000000043e+00 6.402180000000000426e+00 1.812049999999999939e+00 6.599669999999999703e+00 7.965379999999999683e+00 5.969070000000000320e+00 9.758599999999999497e+00 6.173239999999999839e+00 6.198400000000000354e+00 3.413479999999999848e+00
9.951710000000000278e+00 2.203559999999999963e+00 2.525049999999999795e+00 1.035299999999999970e-01 2.426530000000000076e+00 7.908780000000000143e+00 1.002979999999999983e+01 7.960420000000000051e+00 2.232380000000000031e+00 4.304600000000000093e-01 8.202199999999999491e+00 7.389240000000000030e+00 4.915969999999999729e+00 2.814569999999999794e+00 2.312530000000000197e+00 5.255530000000000257e+00 2.566809999999999814e+00 7.403920000000000279e+00 5.140959999999999752e+00 7.937940000000000218e+00 2.542650000000000077e+00 5.359790000000000276e+00 7.900879999999999903e+00 7.855120000000000324e+00 2.510159999999999947e+00 5.122499999999999609e+00 2.327830000000000066e+00 2.591600000000000126e+00 5.203100000000000058e+00 7.275330000000000297e+00 2.608509999999999884e+00 1.054780000000000051e+01 2.393749999999999822e+00 2.938559999999999839e+00 1.057380999999999993e+01 7.841120000000000090e+00 7.705309999999999881e+00 5.112510000000000332e+00 2.304559999999999942e+00 8.052009999999999224e+00 4.861469999999999736e+00 7.492860000000000298e+00 7.369909999999999961e+00 1.050769999999999982e+01 2.290690000000000115e+00 7.718479999999999563e+00 1.065109999999999957e+01 7.853290000000000326e+00 2.166640000000000121e+00 2.429489999999999927e+00 5.019580000000000375e+00 2.457980000000000054e+00 2.403090000000000170e+00 1.016986999999999952e+01 2.919840000000000213e+00 7.832499999999999574e+00 5.286920000000000286e+00 2.493059999999999832e+00 7.574970000000000425e+00 2.355000000000000149e-02 7.978159999999999918e+00 2.554370000000000029e+00 4.995370000000000310e+00 7.627959999999999852e+00 2.487989999999999924e+00 1.014037000000000077e+01 7.811989999999999768e+00 7.847760000000000069e+00 4.946909999999999918e+00 7.758960000000000079e+00 7.519700000000000273e+00 9.918160000000000309e+00 2.482399999999999884e-01 1.011679999999999957e+01 5.027750000000000163e+00 2.556999999999999898e-02 1.035999999999999943e+01 7.013999999999999402e-02 2.496200000000000085e-01 5.318489999999999718e+00 4.839889999999999581e+00 1.892399999999999916e-01 5.215539999999999843e+00 1.003261000000000003e+01 5.343829999999999636e+00 1.034079999999999977e+01 5.157440000000000246e+00 5.123999999999999666e+00 1.104900000000000049e-01 1.806000000000000105e-01 5.024079999999999657e+00 5.172959999999999781e+00 4.985870000000000246e+00 5.144350000000000200e+00 5.301190000000000069e+00 9.928910000000000124e+00 4.158249999999999780e+00 4.680060000000000109e+00 3.333650000000000002e+00 4.132799999999999585e+00 4.357050000000000090e+00 8.481400000000000716e+00 4.003199999999999648e+00 9.861769999999999925e+00 3.555550000000000210e+00 4.388969999999999594e+00 9.604710000000000747e+00 8.570289999999999964e+00 9.176729999999999166e+00 3.968220000000000081e+00 3.997390000000000221e+00 8.837410000000000210e+00 4.238159999999999705e+00 9.162810000000000343e+00 9.052440000000000708e+00 9.390599999999999170e+00 3.524490000000000123e+00 4.025689999999999991e+00 1.342249999999999943e+00 1.389939999999999953e+00 3.881120000000000125e+00 7.687300000000000244e-01 6.424949999999999939e+00 3.870550000000000157e+00 6.301989999999999981e+00 1.085150000000000059e+00 4.083309999999999995e+00 6.358539999999999637e+00 6.359399999999999942e+00 9.000510000000000232e+00 7.288000000000000034e-01 1.272000000000000020e+00 9.618700000000000472e+00 8.449020000000000863e+00 5.781830000000000247e+00 8.867250000000000298e+00 6.317160000000000331e+00 1.049209999999999976e+00 8.945090000000000430e+00 5.806250000000000355e+00 6.320570000000000022e+00 3.617719999999999825e+00 2.023829999999999796e+00 3.844380000000000130e+00 3.934890000000000221e+00 1.495330000000000048e+00 9.144849999999999923e+00 3.818060000000000009e+00 7.020179999999999865e+00 3.647600000000000176e+00 4.261490000000000222e+00 7.109600000000000364e+00 9.190950000000000841e+00 8.905789999999999651e+00 1.043630000000000058e+00 3.771910000000000096e+00 8.795650000000000190e+00 1.372039999999999926e+00 8.920360000000000511e+00 9.132770000000000721e+00 6.491590000000000416e+00 3.632760000000000211e+00 9.583529999999999660e+00 6.933919999999999639e+00 8.812910000000000466e+00 3.469069999999999876e+00 3.931410000000000071e+00 8.690099999999999492e-01 3.590640000000000054e+00 3.899340000000000028e+00 5.820009999999999906e+00 3.712130000000000152e+00 9.036530000000000840e+00 1.006930000000000103e+00 4.451609999999999623e+00 8.779130000000000322e+00 6.062710000000000043e+00 8.726240000000000663e+00 3.478650000000000020e+00 1.533439999999999914e+00 8.732559999999999434e+00 2.964739999999999931e+00 6.818439999999999834e+00 8.955999999999999517e+00 8.893919999999999604e+00 7.230100000000000415e-01 9.619799999999999685e+00 9.770590000000000330e+00 8.289300000000000779e+00 1.438649999999999984e+00 7.547899999999999610e-01 3.909299999999999997e+00 1.348079999999999945e+00 9.768999999999999906e-01 8.749019999999999797e+00 1.583010000000000028e+00 5.988199999999999967e+00 4.025520000000000209e+00 1.605739999999999945e+00 5.991299999999999848e+00 8.849220000000000752e+00 6.357079999999999842e+00 5.924500000000000322e-01 3.570460000000000189e+00 6.322930000000000383e+00 9.556299999999999795e-01 9.020419999999999661e+00 6.231889999999999930e+00 6.004419999999999646e+00 3.405860000000000110e+00 6.836369999999999614e+00 6.157720000000000304e+00 8.900869999999999393e+00 9.807599999999999651e-01 3.843170000000000197e+00 1.183170000000000055e+00 9.554799999999999960e-01 4.029580000000000162e+00 6.595740000000000158e+00 1.388060000000000072e+00 8.930630000000000734e+00 1.308759999999999923e+00 1.892619999999999969e+00 9.319860000000000255e+00 6.363459999999999894e+00 6.342030000000000278e+00 4.209010000000000140e+00 1.168819999999999970e+00 6.452609999999999957e+00 3.976529999999999898e+00 6.450160000000000338e+00 6.343180000000000263e+00 9.456400000000000361e+00 1.180839999999999890e+00 7.163350000000000328e+00 9.353780000000000427e+00 6.254410000000000025e+00 1.128730000000000011e+00 3.403249999999999886e+00 3.471340000000000092e+00 1.254760000000000097e+00 3.534370000000000012e+00 9.046559999999999491e+00 1.344049999999999967e+00 8.875939999999999941e+00 3.746150000000000091e+00 1.712960000000000038e+00 9.082069999999999865e+00 8.619210000000000704e+00 6.536279999999999646e+00 3.494709999999999983e+00 3.795459999999999834e+00 6.551400000000000112e+00 3.413170000000000037e+00 8.668910000000000338e+00 6.394350000000000200e+00 8.774990000000000734e+00 3.774900000000000144e+00 6.689519999999999911e+00 9.047800000000000509e+00 9.046910000000000451e+00 1.186039999999999983e+00 9.227800000000000447e-01 1.135860000000000092e+00 8.469100000000000517e-01 1.101509999999999989e+00 6.418409999999999727e+00 1.053709999999999924e+00 6.396359999999999602e+00 1.303369999999999918e+00 1.494220000000000104e+00 6.747080000000000410e+00 6.571100000000000385e+00 6.504699999999999704e+00 1.354789999999999939e+00 1.141440000000000010e+00 6.394829999999999792e+00 1.221019999999999994e+00 6.341879999999999740e+00 6.527590000000000003e+00 6.718950000000000422e+00 1.040499999999999980e+00 6.907350000000000101e+00 6.893550000000000288e+00 6.596549999999999692e+00
2.426500000000000046e-01 2.696899999999999853e+00 2.769039999999999946e+00 3.737999999999999656e-02 2.128670000000000062e+00 8.476369999999999294e+00 5.111499999999999932e-01 7.826050000000000395e+00 2.705579999999999874e+00 1.312099999999999933e-01 8.202999999999999403e+00 7.470519999999999605e+00 5.358060000000000045e+00 2.401590000000000114e+00 2.496989999999999821e+00 5.364799999999999791e+00 2.282329999999999970e+00 7.708370000000000388e+00 5.385399999999999743e+00 8.081810000000000827e+00 1.900660000000000016e+00 5.443970000000000198e+00 7.700619999999999798e+00 7.521659999999999791e+00 2.914149999999999796e+00 5.067840000000000344e+00 2.126580000000000137e+00 2.494299999999999962e+00 4.901889999999999858e+00 7.705210000000000115e+00 2.646360000000000046e+00 1.069696000000000069e+01 2.702300000000000146e+00 2.388500000000000068e+00 1.032465999999999973e+01 8.049559999999999604e+00 7.591000000000000192e+00 5.692529999999999646e+00 2.338260000000000005e+00 8.283089999999999620e+00 4.870589999999999975e+00 7.892870000000000275e+00 7.972139999999999560e+00 1.058886000000000038e+01 2.754290000000000127e+00 7.792690000000000339e+00 1.071776000000000018e+01 7.814849999999999852e+00 2.837619999999999809e+00 2.658049999999999802e+00 5.058539999999999814e+00 2.673039999999999861e+00 2.344359999999999999e+00 1.034539999999999971e+01 2.831679999999999975e+00 7.859589999999999854e+00 4.745510000000000339e+00 2.790090000000000181e+00 8.093700000000000117e+00 1.021189999999999998e+01 8.043189999999999173e+00 2.719599999999999795e+00 5.267769999999999619e+00 7.926050000000000040e+00 2.815650000000000208e+00 1.298600000000000032e-01 8.300200000000000244e+00 8.006460000000000576e+00 4.763630000000000031e+00 8.382189999999999586e+00 8.083869999999999223e+00 1.009755000000000003e+01 1.958699999999999886e-01 3.045499999999999874e-01 5.538579999999999615e+00 1.026632999999999996e+01 1.682200000000000084e-01 6.972800000000000109e-01 6.810000000000000081e-03 4.738599999999999923e+00 4.862160000000000259e+00 3.536400000000000099e-01 5.475600000000000023e+00 9.952410000000000423e+00 5.461079999999999934e+00 1.057896000000000036e+01 5.240630000000000344e+00 5.326500000000000234e+00 9.976649999999999352e+00 9.859579999999999345e+00 5.312439999999999607e+00 5.250880000000000436e+00 5.020719999999999850e+00 5.883079999999999643e+00 5.582639999999999603e+00 1.018420000000000059e+01 6.142669999999999852e+00 3.262210000000000054e+00 4.499150000000000205e+00 4.643489999999999895e+00 3.568470000000000031e+00 9.667049999999999699e+00 4.264240000000000030e+00 7.149919999999999831e+00 3.197550000000000114e+00 8.132700000000000484e-01 9.750199999999999534e+00 1.449600000000000000e+00 8.525529999999999831e+00 3.713420000000000165e+00 3.407490000000000130e+00 8.700710000000000832e+00 1.421859999999999902e+00 9.378069999999999240e+00 9.755399999999999849e+00 6.637760000000000105e+00 3.630999999999999783e+00 6.561449999999999783e+00 9.336199999999999832e+00 7.165399999999999547e-01 1.612619999999999942e+00 1.605920000000000014e+00 7.131260000000000154e+00 4.776250000000000107e+00 8.124560000000000670e+00 1.034420000000000073e+01 3.740959999999999841e+00 6.732140000000000235e+00 8.580790000000000362e+00 9.410330000000000084e+00 2.023660000000000014e+00 1.352570000000000050e+00 1.013157999999999959e+01 2.752040000000000042e+00 4.818830000000000169e+00 9.387700000000000600e+00 8.155000000000000027e-01 3.660909999999999886e+00 6.622110000000000163e+00 3.354589999999999961e+00 7.056530000000000413e+00 3.920350000000000001e+00 3.853709999999999969e+00 6.816819999999999879e+00 4.033339999999999925e+00 9.671989999999999199e+00 1.710299999999999931e+00 5.056379999999999875e+00 7.617090000000000138e+00 5.459399999999999586e+00 6.559779999999999944e+00 7.083499999999999908e+00 9.472699999999999676e+00 3.372869999999999813e+00 1.644940000000000069e+00 2.886099999999999888e+00 1.407569999999999988e+00 3.904059999999999864e+00 9.254379999999999384e+00 9.109239999999999782e+00 9.722709999999999297e+00 1.246490000000000098e+00 9.720470000000000610e+00 3.524280000000000079e+00 9.839370000000000616e+00 4.078800000000000203e+00 4.424059999999999881e+00 3.575489999999999835e+00 3.080960000000000143e+00 6.250420000000000087e+00 5.849059999999999704e+00 9.308149999999999480e+00 9.262829999999999231e+00 3.605150000000000077e+00 4.546509999999999607e+00 1.569050000000000056e+00 5.655899999999999928e+00 1.834459999999999980e+00 6.487960000000000171e+00 3.636319999999999997e+00 6.390299999999999869e+00 5.610450000000000159e+00 7.220740000000000158e+00 3.294109999999999872e+00 5.964300000000000157e-01 1.010580999999999996e+01 9.474709999999999965e+00 9.923270000000000479e+00 6.369299999999999962e+00 1.397750000000000048e+00 9.049099999999999921e-01 4.109969999999999679e+00 9.128800000000000248e-01 7.923400000000000443e-01 9.466519999999999158e+00 1.622309999999999919e+00 9.005069999999999908e+00 6.397630000000000372e+00 1.158679999999999932e+00 6.353720000000000034e+00 7.363929999999999865e+00 6.094829999999999970e+00 6.362499999999999822e-01 6.971989999999999910e+00 3.974499999999999922e+00 9.347250000000000725e+00 7.702340000000000408e+00 5.915619999999999656e+00 6.230199999999999960e+00 1.593790000000000040e+00 6.840919999999999668e+00 6.342819999999999681e+00 4.144289999999999807e+00 8.708200000000000385e-01 4.767280000000000406e+00 1.418830000000000036e+00 9.620469999999999189e+00 4.336669999999999803e+00 6.669209999999999638e+00 6.782079999999999664e+00 9.107519999999999172e+00 8.768599999999999284e+00 9.193690000000000140e+00 9.251289999999999125e+00 8.775410000000000821e+00 3.865149999999999864e+00 6.359700000000000131e+00 8.956199999999999717e-01 6.228460000000000107e+00 9.479380000000000805e+00 3.433699999999999974e+00 3.864050000000000207e+00 9.704459999999999198e+00 4.067540000000000155e+00 7.108189999999999564e+00 8.838060000000000471e+00 6.057389999999999830e+00 1.842689999999999939e+00 3.674170000000000158e+00 3.625640000000000196e+00 1.843250000000000055e+00 4.181910000000000238e+00 5.991959999999999731e+00 1.726830000000000087e+00 8.984339999999999549e+00 3.621900000000000119e+00 1.520510000000000028e+00 8.804660000000000153e+00 9.298750000000000071e+00 6.702510000000000190e+00 3.649770000000000181e+00 1.723179999999999934e+00 7.743170000000000108e+00 4.482450000000000045e+00 9.769930000000000447e+00 7.000949999999999562e+00 6.129299999999999748e-01 4.532409999999999606e+00 9.421920000000000073e+00 6.429129999999999789e+00 9.244239999999999569e+00 1.325180000000000025e+00 1.273269999999999902e+00 1.737819999999999920e+00 8.804100000000000037e+00 1.456530000000000102e+00 7.126739999999999853e+00 9.619199999999999973e-01 7.261190000000000033e+00 7.484399999999999942e-01 9.144980000000000331e+00 7.331780000000000186e+00 6.363129999999999953e+00 6.886140000000000150e+00 1.164940000000000087e+00 1.578279999999999905e+00 6.240409999999999791e+00 1.193359999999999976e+00 9.384880000000000777e+00 8.696519999999999584e+00 6.868839999999999613e+00 1.189249999999999918e+00 3.372259999999999813e+00 3.218170000000000197e+00 1.358079999999999954e+00