-9.048181611799999473e+02
-9.173472324299999627e+02
-9.153400350199999593e+02
-9.002418163199999981e+02
-8.878383737399999518e+02
-8.975304421600000069e+02
-9.141779024100000015e+02
-9.140991297900000063e+02
-9.026162638600000037e+02
-8.874406163300000117e+02
-9.137599893999999949e+02
-9.101143740400000297e+02
-8.891558748700000478e+02
-9.205663652800000136e+02
-9.140291258299999981e+02
-9.178557303799999545e+02
-9.164684522300000253e+02
-9.201255395399999770e+02
-8.937127616100000296e+02
-9.017900303599999461e+02
-9.084761817099999917e+02
-8.943638803600000529e+02
-9.148118830500000058e+02
-9.034999216300000171e+02
-8.922600326000000450e+02
-9.111834668300000430e+02
-9.179638889200000449e+02
-9.051884323199999471e+02
-8.905412311799999543e+02
-9.051824519699999883e+02
-9.096333943099999715e+02
-9.085846091800000295e+02
-9.154177588000000014e+02
-9.175942025900000090e+02
-9.161963328399999682e+02
-9.170808166399999664e+02
-8.857146906299999500e+02
-9.208064487000000327e+02
-9.131799826100000246e+02
-8.852524400500000183e+02
-8.945787886099999469e+02
-9.138553389200000083e+02
-9.129896125999999867e+02
-8.957207367900000463e+02
-9.000186463799999501e+02
-9.163675939600000220e+02
-8.936836157100000264e+02
-9.125637310299999854e+02
-9.145720258100000137e+02
-8.869780820900000435e+02
-9.222489986799999997e+02
-9.102349735699999655e+02
-9.167669693200000438e+02
-9.209897696799999949e+02
-9.142771375900000521e+02
-9.010182116299999961e+02
-9.073015938500000175e+02
-9.069307374200000140e+02
-9.108208469700000478e+02
-9.142567830899999990e+02
-8.888347618799999736e+02
-9.086513779800000066e+02
-9.169364012500000172e+02
-9.162569726100000480e+02
-9.172335815899999716e+02
-8.895895391599999584e+02
-9.139517079400000057e+02
-9.025487886700000217e+02
-9.160668582199999719e+02
-9.049861907399999836e+02
-9.019607392000000345e+02
-9.161412863199999492e+02
-9.032490292799999452e+02
-8.898661681700000372e+02
-9.032008563000000549e+02
-8.962828386800000544e+02
-9.080227992100000165e+02
-9.185393390499999668e+02
-9.161000937100000101e+02
-9.188754794999999831e+02
-9.120971797299999935e+02
-9.145666843499999459e+02
-9.091353051600000299e+02
-9.146002833500000406e+02
-9.059868134399999917e+02
-9.054825786000000107e+02
-9.029027119600000333e+02
-8.929230851600000278e+02
-8.887677596300000005e+02
-8.877187483100000236e+02
-9.122121578300000238e+02
-9.151586517900000217e+02
-9.179631905899999538e+02
-9.174910387899999478e+02
-8.881691492600000402e+02
-9.090375795899999503e+02
-9.073715962700000546e+02
-9.144805917099999988e+02
-9.046721233399999846e+02
-8.852740632899999582e+02
