8.802000000000000102e-02 2.679720000000000102e+00 2.430460000000000065e+00 3.544800000000000173e-01 2.142040000000000166e+00 8.151690000000000325e+00 1.050116000000000049e+01 7.755989999999999718e+00 2.525150000000000006e+00 1.034046000000000021e+01 8.375130000000000408e+00 7.650290000000000035e+00 5.618739999999999846e+00 2.603089999999999904e+00 2.631590000000000096e+00 5.800069999999999837e+00 2.899439999999999795e+00 7.079150000000000276e+00 5.551129999999999676e+00 7.373509999999999565e+00 2.488469999999999960e+00 5.464710000000000178e+00 8.030020000000000380e+00 7.713879999999999626e+00 3.141980000000000217e+00 5.045759999999999579e+00 2.244139999999999802e+00 2.780479999999999841e+00 5.201690000000000147e+00 7.822169999999999845e+00 2.546310000000000073e+00 1.052441999999999922e+01 2.727559999999999985e+00 2.599340000000000206e+00 1.070731999999999928e+01 8.069209999999999994e+00 8.054909999999999570e+00 4.824230000000000018e+00 2.046429999999999971e+00 8.132020000000000692e+00 5.445229999999999571e+00 7.861679999999999779e+00 7.570120000000000182e+00 1.127000000000000050e-02 2.614780000000000104e+00 7.856029999999999625e+00 2.500000000000000052e-03 8.117919999999999803e+00 2.901190000000000158e+00 2.404370000000000118e+00 5.171000000000000263e+00 2.950079999999999814e+00 2.579219999999999846e+00 1.026089999999999947e+01 2.671279999999999877e+00 8.249900000000000233e+00 5.001310000000000144e+00 2.170980000000000132e+00 7.781550000000000189e+00 1.017323000000000022e+01 8.588219999999999743e+00 2.717330000000000023e+00 5.181160000000000210e+00 7.952569999999999695e+00 1.908649999999999958e+00 3.955999999999999794e-02 7.642979999999999663e+00 8.454380000000000450e+00 5.027519999999999989e+00 7.969870000000000232e+00 7.972190000000000332e+00 2.788300000000000223e-01 1.229999999999999982e-01 5.772929999999999673e+00 5.513729999999999798e+00 6.700000000000000226e-04 5.116439999999999877e+00 1.039289999999999914e+01 1.107800000000000035e-01 1.413500000000000034e-01 5.256960000000000299e+00 1.030146000000000051e+01 1.049662000000000006e+01 7.380000000000000449e-02 5.171120000000000161e+00 5.618940000000000268e+00 5.006470000000000198e+00 5.288940000000000197e+00 5.113800000000000345e+00 1.000913000000000075e+01 5.130230000000000068e+00 1.080272000000000077e+01 5.372270000000000323e+00 4.902300000000000324e+00 1.042741999999999969e+01 1.045020000000000060e+01 3.781810000000000116e+00 3.593539999999999957e+00 3.826610000000000067e+00 3.727660000000000196e+00 4.002550000000000274e+00 9.254989999999999384e+00 3.850089999999999790e+00 9.196889999999999787e+00 3.392090000000000050e+00 3.567600000000000104e+00 9.091029999999999944e+00 9.499330000000000496e+00 9.151049999999999685e+00 4.477249999999999730e+00 3.678819999999999979e+00 9.458080000000000709e+00 4.173919999999999852e+00 8.437089999999999534e+00 8.736750000000000682e+00 1.053631999999999991e+01 4.222360000000000113e+00 9.406119999999999592e+00 7.271810000000000329e+00 8.927670000000000883e+00 3.714420000000000055e+00 1.326700000000000101e-01 1.352850000000000108e+00 4.098429999999999573e+00 9.737750000000000128e+00 6.945549999999999891e+00 4.629199999999999982e+00 6.172100000000000364e+00 1.388179999999999970e+00 4.084859999999999935e+00 6.909040000000000070e+00 6.431949999999999612e+00 9.226820000000000022e+00 3.584159999999999791e+00 9.431000000000000494e-01 9.629810000000000869e+00 1.180620000000000003e+00 7.052319999999999922e+00 8.912520000000000664e+00 9.608959999999999724e+00 1.211750000000000105e+00 8.995100000000000762e+00 6.780940000000000190e+00 6.489840000000000053e+00 2.982060000000000155e+00 8.450100000000000389e-01 4.056610000000000049e+00 4.173610000000000042e+00 7.696399999999999908e-01 9.014649999999999608e+00 3.876580000000000137e+00 6.349700000000000344e+00 3.775079999999999991e+00 4.025689999999999991e+00 6.259360000000000035e+00 9.093189999999999884e+00 1.007862000000000080e+01 3.880149999999999988e+00 5.999220000000000219e+00 9.599650000000000460e+00 1.355679999999999996e+00 9.742820000000000036e+00 9.394679999999999254e+00 7.597669999999999924e+00 4.199510000000000076e+00 9.427820000000000533e+00 6.604669999999999597e+00 1.274049999999999905e+00 3.753550000000000164e+00 3.524560000000000137e+00 1.306829999999999936e+00 4.073970000000000091e+00 4.467480000000000118e+00 6.458459999999999646e+00 6.522619999999999862e+00 8.831350000000000477e+00 9.848400000000000487e-01 1.595930000000000071e+00 7.358000000000000096e-01 6.576850000000000307e+00 1.019500999999999991e+01 1.988420000000000076e+00 4.187570000000000014e+00 1.433550000000000102e+00 9.868299999999999850e-01 9.287499999999999645e+00 1.447349999999999914e+00 6.881300000000000416e+00 3.370299999999999851e+00 1.112440000000000095e+00 5.885530000000000150e+00 8.808740000000000236e+00 5.314300000000000246e+00 9.965199999999999614e-01 3.551250000000000018e+00 6.964319999999999844e+00 1.845579999999999998e+00 8.400750000000000384e+00 6.348629999999999995e+00 7.101969999999999672e+00 4.361360000000000348e+00 6.823039999999999772e+00 6.487750000000000128e+00 9.402150000000000674e+00 1.216250000000000053e+00 4.183550000000000324e+00 2.696270000000000167e+00 7.184720000000000439e+00 4.410199999999999676e+00 6.175670000000000215e+00 9.252000000000000224e-01 9.196709999999999496e+00 9.698499999999999899e-01 1.013077000000000005e+01 9.810010000000000119e+00 6.561209999999999987e+00 6.788689999999999891e+00 3.875420000000000087e+00 4.499299999999999966e-01 7.264980000000000437e+00 1.466499999999999915e+00 6.139960000000000306e+00 7.557520000000000238e+00 2.144800000000000040e+00 2.397600000000000176e+00 6.684549999999999770e+00 9.793160000000000309e+00 6.582589999999999719e+00 1.776810000000000000e+00 5.248669999999999725e+00 6.251750000000000362e+00 1.114740000000000064e+00 3.255430000000000046e+00 2.368000000000000105e-01 9.875899999999999679e-01 9.734090000000000131e+00 3.761660000000000004e+00 1.452760000000000051e+00 9.089539999999999509e+00 8.851039999999999353e+00 6.282239999999999824e+00 4.737639999999999851e+00 3.363560000000000105e+00 6.121610000000000440e+00 4.388950000000000351e+00 8.009330000000000283e+00 6.559120000000000061e+00 9.303639999999999688e+00 3.685449999999999893e+00 6.454670000000000130e+00 9.268250000000000099e+00 9.210800000000000765e+00 8.306400000000000450e-01 9.980999999999999872e-01 1.713200000000000056e+00 1.882489999999999997e+00 3.262869999999999937e+00 7.899379999999999846e+00 2.131990000000000052e+00 6.162740000000000329e+00 9.231399999999999606e-01 9.769299999999999651e-01 7.466499999999999915e+00 6.270609999999999573e+00 6.215270000000000294e+00 8.953200000000000047e-01 6.172400000000000109e-01 4.380869999999999820e+00 1.527109999999999967e+00 6.072129999999999583e+00 7.086310000000000109e+00 6.604709999999999859e+00 1.615799999999999903e+00 7.015710000000000335e+00 7.295539999999999914e+00 6.900249999999999773e+00
1.057099999999999984e-01 2.270950000000000024e+00 2.629910000000000192e+00 1.708899999999999864e-01 2.073339999999999961e+00 7.785359999999999836e+00 1.463099999999999956e-01 7.257209999999999717e+00 2.716070000000000206e+00 1.011828000000000038e+01 7.753470000000000084e+00 7.505810000000000315e+00 5.360050000000000203e+00 3.027420000000000222e+00 2.474509999999999987e+00 5.263419999999999987e+00 3.072589999999999932e+00 7.665939999999999976e+00 5.253049999999999997e+00 8.287530000000000285e+00 2.601939999999999920e+00 5.259479999999999933e+00 8.358230000000000715e+00 7.588619999999999699e+00 2.653329999999999966e+00 4.734650000000000247e+00 2.157369999999999788e+00 2.407049999999999912e+00 4.733719999999999928e+00 7.595819999999999794e+00 2.530769999999999964e+00 1.006351000000000084e+01 2.267990000000000173e+00 2.404389999999999805e+00 9.818360000000000198e+00 7.423739999999999561e+00 7.812229999999999563e+00 5.240359999999999907e+00 2.437990000000000101e+00 7.879410000000000025e+00 5.254279999999999617e+00 7.939510000000000289e+00 7.669609999999999594e+00 2.460000000000000034e-02 2.499559999999999782e+00 7.737250000000000405e+00 1.189100000000000018e-01 7.749039999999999928e+00 2.453489999999999949e+00 1.981330000000000036e+00 5.154309999999999725e+00 2.446889999999999787e+00 2.027390000000000025e+00 1.017245999999999917e+01 2.408420000000000005e+00 7.316569999999999574e+00 5.166330000000000311e+00 2.566429999999999989e+00 7.454609999999999737e+00 1.129799999999999971e-01 7.368360000000000021e+00 2.826239999999999863e+00 5.353559999999999874e+00 7.703310000000000102e+00 2.562069999999999848e+00 1.010796000000000028e+01 7.713320000000000398e+00 7.850979999999999848e+00 4.961079999999999934e+00 7.463709999999999845e+00 7.978049999999999642e+00 1.018496000000000024e+01 2.630600000000000160e-01 4.641790000000000305e+00 4.798840000000000217e+00 -1.748999999999999860e-02 5.239880000000000315e+00 1.021216000000000079e+01 8.330999999999999517e-02 1.012176999999999971e+01 4.666610000000000369e+00 9.056000000000000161e-02 1.005763999999999925e+01 9.928509999999999280e+00 5.236320000000000086e+00 5.620910000000000295e+00 4.982579999999999565e+00 5.210720000000000240e+00 5.595989999999999576e+00 9.990050000000000097e+00 5.154370000000000118e+00 4.045400000000000107e-01 4.813299999999999912e+00 5.283660000000000245e+00 2.883800000000000252e-01 9.985390000000000654e+00 4.104119999999999990e+00 4.518510000000000026e+00 3.376240000000000130e+00 4.259360000000000035e+00 4.741299999999999848e+00 8.433329999999999771e+00 4.192400000000000126e+00 1.009366999999999948e+01 3.399210000000000065e+00 4.185489999999999711e+00 9.808030000000000470e+00 8.454670000000000130e+00 9.180989999999999540e+00 3.419059999999999988e+00 3.745530000000000026e+00 9.117620000000000502e+00 3.813619999999999788e+00 8.569229999999999237e+00 9.016030000000000655e+00 8.697660000000000835e+00 3.580970000000000208e+00 9.289749999999999730e+00 9.492900000000000560e+00 7.935690000000000133e+00 3.633270000000000000e+00 4.610400000000000054e-01 7.570500000000000007e-01 3.475999999999999979e+00 3.975699999999999790e-01 6.114259999999999806e+00 3.679359999999999964e+00 5.873420000000000307e+00 8.630400000000000293e-01 3.466460000000000097e+00 5.794529999999999959e+00 5.879570000000000185e+00 8.787919999999999732e+00 1.538450000000000095e+00 1.368309999999999915e+00 8.478740000000000165e+00 1.830119999999999969e+00 6.590869999999999784e+00 9.005250000000000199e+00 6.508180000000000298e+00 1.237279999999999935e+00 8.373509999999999565e+00 6.948769999999999669e+00 6.581039999999999779e+00 4.073680000000000412e+00 1.902819999999999956e+00 3.916189999999999838e+00 4.062969999999999970e+00 2.050580000000000069e+00 9.044800000000000395e+00 4.172679999999999723e+00 7.289640000000000342e+00 3.937899999999999956e+00 4.307089999999999641e+00 7.447239999999999860e+00 9.271910000000000096e+00 8.997769999999999158e+00 7.485800000000000232e-01 3.994800000000000129e+00 9.318550000000000111e+00 1.092340000000000089e+00 9.161540000000000461e+00 9.153549999999999187e+00 6.205680000000000085e+00 3.991560000000000219e+00 9.352710000000000079e+00 6.643299999999999983e+00 9.088810000000000500e+00 3.610469999999999846e+00 3.262840000000000185e+00 1.210409999999999986e+00 3.355690000000000062e+00 3.136719999999999953e+00 6.575980000000000381e+00 3.567060000000000120e+00 8.412190000000000722e+00 1.582189999999999985e+00 3.343970000000000109e+00 8.296540000000000248e+00 6.587909999999999933e+00 1.619720000000000049e+00 6.539599999999999858e-01 3.719570000000000043e+00 1.376489999999999991e+00 5.868700000000000028e-01 8.780279999999999418e+00 1.440560000000000063e+00 5.871999999999999886e+00 3.852720000000000145e+00 1.869119999999999893e+00 5.639219999999999899e+00 9.294579999999999842e+00 6.494670000000000165e+00 1.619939999999999936e+00 3.620379999999999932e+00 6.647029999999999994e+00 1.563800000000000079e+00 8.689230000000000231e+00 6.610789999999999722e+00 6.642269999999999897e+00 3.373499999999999943e+00 6.711310000000000109e+00 6.735990000000000144e+00 8.605209999999999582e+00 7.699399999999999578e-01 3.840669999999999806e+00 1.273560000000000025e+00 9.158100000000000129e-01 3.323119999999999852e+00 6.256569999999999965e+00 9.141799999999999926e-01 8.738849999999999341e+00 9.363200000000000411e-01 1.033840000000000092e+00 8.894069999999999254e+00 6.039850000000000385e+00 6.408570000000000100e+00 4.431250000000000355e+00 1.299120000000000053e+00 6.464870000000000339e+00 4.469319999999999737e+00 6.527140000000000164e+00 6.284779999999999589e+00 9.873900000000000787e+00 1.268909999999999982e+00 6.324089999999999989e+00 9.669119999999999493e+00 6.462290000000000312e+00 1.617369999999999974e+00 3.388869999999999827e+00 3.806560000000000166e+00 1.476269999999999971e+00 3.193799999999999972e+00 8.954000000000000625e+00 1.360100000000000087e+00 8.737560000000000215e+00 3.559000000000000163e+00 1.265330000000000066e+00 8.523389999999999134e+00 8.840749999999999886e+00 6.511110000000000397e+00 4.032809999999999562e+00 3.987979999999999858e+00 6.624249999999999972e+00 4.093609999999999971e+00 9.041019999999999612e+00 6.576900000000000190e+00 9.509619999999999962e+00 3.912640000000000118e+00 6.658299999999999663e+00 9.431960000000000122e+00 8.926439999999999486e+00 1.139289999999999914e+00 9.545000000000000151e-01 1.245290000000000008e+00 1.045949999999999935e+00 6.884000000000000119e-01 6.338919999999999888e+00 1.293849999999999945e+00 6.243540000000000312e+00 1.393019999999999925e+00 9.705399999999999583e-01 6.039990000000000414e+00 6.698330000000000339e+00 6.093020000000000103e+00 1.861469999999999958e+00 9.534000000000000252e-01 5.943590000000000373e+00 1.708939999999999904e+00 6.194429999999999659e+00 6.217509999999999870e+00 7.208890000000000242e+00 1.023679999999999923e+00 6.007069999999999688e+00 7.071930000000000049e+00 5.930819999999999759e+00
2.282000000000000001e-02 2.498190000000000133e+00 2.284400000000000208e+00 9.917339999999999378e+00 2.574600000000000222e+00 7.416459999999999830e+00 1.001082000000000072e+01 7.842800000000000438e+00 2.215069999999999872e+00 9.942520000000000024e+00 7.737199999999999633e+00 7.381890000000000285e+00 5.055109999999999992e+00 2.744800000000000129e+00 2.329200000000000159e+00 4.831170000000000186e+00 2.631810000000000205e+00 7.259380000000000166e+00 5.246069999999999567e+00 7.760069999999999801e+00 2.512809999999999988e+00 5.072400000000000020e+00 7.930609999999999715e+00 7.318839999999999790e+00 2.560039999999999871e+00 4.790899999999999714e+00 2.352790000000000159e+00 2.421009999999999884e+00 4.927080000000000126e+00 7.325610000000000177e+00 2.639069999999999805e+00 1.008114999999999917e+01 2.338420000000000165e+00 2.593090000000000117e+00 1.000164999999999971e+01 7.356709999999999638e+00 7.653419999999999668e+00 4.763219999999999565e+00 2.403220000000000134e+00 7.458549999999999791e+00 4.879260000000000375e+00 7.341560000000000308e+00 7.557710000000000150e+00 1.006264999999999965e+01 2.315459999999999852e+00 7.546369999999999578e+00 1.012695000000000078e+01 7.316959999999999908e+00 2.389930000000000110e+00 2.118739999999999846e+00 5.041920000000000179e+00 2.452339999999999964e+00 2.225839999999999819e+00 9.880079999999999529e+00 2.502250000000000085e+00 7.472109999999999808e+00 4.845290000000000319e+00 2.605020000000000113e+00 7.433830000000000382e+00 3.071000000000000119e-02 7.518060000000000187e+00 2.279310000000000169e+00 4.992939999999999934e+00 7.438390000000000057e+00 2.363319999999999865e+00 9.975889999999999702e+00 7.601469999999999949e+00 7.550029999999999575e+00 5.026530000000000165e+00 7.568480000000000096e+00 7.481849999999999667e+00 3.710000000000000190e-03 -1.129999999999999928e-03 5.275769999999999627e+00 4.825990000000000002e+00 9.986090000000000799e+00 5.117200000000000415e+00 2.145000000000000032e-02 9.961100000000000065e+00 1.033264999999999922e+01 5.123420000000000307e+00 9.943030000000000257e+00 1.042592999999999925e+01 2.564999999999999919e-02 4.951939999999999564e+00 5.248929999999999652e+00 5.159760000000000346e+00 5.038260000000000183e+00 5.251439999999999664e+00 2.854999999999999899e-02 4.955930000000000391e+00 -6.680000000000000174e-03 4.988979999999999748e+00 5.038299999999999557e+00 6.178999999999999770e-02 1.001299000000000028e+01 4.212150000000000283e+00 4.511190000000000033e+00 3.376729999999999787e+00 4.425489999999999924e+00 4.418750000000000178e+00 8.277309999999999945e+00 4.290259999999999962e+00 9.632619999999999294e+00 3.425739999999999785e+00 4.368890000000000384e+00 9.598670000000000258e+00 8.326700000000000657e+00 9.515760000000000218e+00 4.286380000000000301e+00 3.126970000000000027e+00 9.287770000000000081e+00 4.389170000000000016e+00 8.220950000000000202e+00 9.313330000000000553e+00 9.586970000000000880e+00 3.301010000000000222e+00 9.542099999999999582e+00 9.680799999999999628e+00 8.200169999999999959e+00 3.594980000000000064e+00 1.047020000000000062e+00 1.241619999999999946e+00 3.601539999999999964e+00 1.035970000000000057e+00 6.451120000000000410e+00 3.737670000000000048e+00 6.276650000000000063e+00 1.431179999999999897e+00 3.615839999999999943e+00 6.207169999999999632e+00 6.515150000000000219e+00 8.664780000000000371e+00 1.098940000000000028e+00 1.355839999999999934e+00 8.639430000000000831e+00 1.059800000000000075e+00 6.441530000000000200e+00 8.787839999999999208e+00 6.145859999999999879e+00 1.346870000000000012e+00 8.712930000000000064e+00 6.313550000000000217e+00 6.409819999999999851e+00 4.142450000000000188e+00 1.704560000000000075e+00 3.977520000000000167e+00 4.303250000000000242e+00 1.677669999999999995e+00 9.016189999999999927e+00 4.470019999999999882e+00 6.977450000000000152e+00 4.122270000000000323e+00 4.476379999999999804e+00 7.053060000000000329e+00 9.070930000000000604e+00 9.243669999999999831e+00 1.763360000000000039e+00 4.059210000000000207e+00 9.433030000000000470e+00 1.674970000000000070e+00 9.144519999999999982e+00 9.315920000000000201e+00 6.990709999999999980e+00 3.916399999999999881e+00 9.321559999999999846e+00 6.886160000000000281e+00 9.036339999999999151e+00 3.793340000000000156e+00 3.652369999999999894e+00 9.105400000000000160e-01 3.395830000000000126e+00 3.652600000000000069e+00 5.954620000000000246e+00 3.859949999999999992e+00 8.886039999999999495e+00 1.042810000000000015e+00 3.723990000000000133e+00 8.874800000000000466e+00 5.917589999999999684e+00 1.732709999999999972e+00 3.911700000000000177e-01 4.119259999999999700e+00 1.755009999999999959e+00 5.704399999999999471e-01 8.905599999999999739e+00 1.817620000000000013e+00 5.743839999999999613e+00 4.013760000000000439e+00 1.840549999999999908e+00 5.758379999999999832e+00 9.118009999999999948e+00 6.678799999999999848e+00 5.466800000000000548e-01 4.047629999999999839e+00 7.018239999999999590e+00 4.841300000000000048e-01 9.145310000000000272e+00 6.840110000000000134e+00 5.757139999999999702e+00 4.020769999999999733e+00 6.870059999999999611e+00 5.545519999999999783e+00 9.163009999999999877e+00 1.165559999999999929e+00 3.677459999999999951e+00 9.611499999999999488e-01 9.414099999999999691e-01 3.894559999999999800e+00 5.952490000000000059e+00 1.174299999999999899e+00 9.029980000000000118e+00 8.733199999999999852e-01 1.146130000000000093e+00 8.919719999999999871e+00 5.990929999999999644e+00 6.174470000000000347e+00 4.007130000000000081e+00 1.097099999999999964e+00 6.128919999999999924e+00 3.914620000000000211e+00 6.121889999999999610e+00 6.363290000000000113e+00 9.115180000000000504e+00 9.880400000000000293e-01 6.347570000000000157e+00 9.102449999999999264e+00 5.958440000000000403e+00 1.811930000000000041e+00 3.063959999999999795e+00 3.315010000000000012e+00 1.889410000000000034e+00 3.087340000000000195e+00 8.292559999999999931e+00 1.787109999999999976e+00 8.400059999999999860e+00 3.285989999999999966e+00 1.868770000000000042e+00 8.307270000000000820e+00 8.516930000000000334e+00 6.564379999999999882e+00 3.281130000000000102e+00 3.490060000000000162e+00 6.827410000000000423e+00 3.051480000000000192e+00 8.330959999999999255e+00 6.775299999999999656e+00 8.418839999999999435e+00 3.494580000000000020e+00 6.889890000000000292e+00 8.413259999999999295e+00 8.362830000000000652e+00 1.100149999999999961e+00 1.138050000000000006e+00 1.356459999999999999e+00 1.151270000000000016e+00 1.255910000000000082e+00 6.459520000000000373e+00 1.251460000000000017e+00 6.310170000000000279e+00 1.340119999999999978e+00 1.094400000000000039e+00 6.460600000000000342e+00 6.319040000000000212e+00 6.171330000000000204e+00 1.301579999999999959e+00 1.240499999999999936e+00 6.083109999999999573e+00 1.126900000000000013e+00 6.369839999999999947e+00 6.282409999999999606e+00 6.443670000000000009e+00 1.384409999999999918e+00 6.206889999999999574e+00 6.550360000000000404e+00 6.336319999999999730e+00
1.650099999999999900e-01 2.520770000000000177e+00 2.508840000000000181e+00 1.029653000000000063e+01 2.295500000000000096e+00 7.701109999999999900e+00 4.154999999999999666e-02 7.961109999999999687e+00 3.005329999999999835e+00 3.128400000000000070e-01 7.912230000000000096e+00 7.699569999999999581e+00 5.536830000000000140e+00 3.165449999999999875e+00 2.644140000000000157e+00 4.932260000000000311e+00 2.686819999999999986e+00 7.532300000000000217e+00 5.427649999999999864e+00 8.555949999999999278e+00 2.458029999999999937e+00 5.532860000000000333e+00 8.098420000000000840e+00 7.757460000000000022e+00 2.705439999999999845e+00 5.381649999999999601e+00 2.223320000000000185e+00 2.372780000000000111e+00 5.170659999999999812e+00 7.865459999999999674e+00 3.098730000000000206e+00 1.068221999999999916e+01 2.089949999999999974e+00 2.531039999999999957e+00 1.039311999999999969e+01 7.664100000000000357e+00 8.033170000000000144e+00 5.082720000000000127e+00 1.985700000000000021e+00 7.978900000000000325e+00 5.248370000000000424e+00 7.831859999999999822e+00 8.060470000000000468e+00 -5.830000000000000113e-03 2.794960000000000111e+00 7.136190000000000033e+00 3.093999999999999875e-02 7.674380000000000202e+00 2.346309999999999896e+00 2.699329999999999785e+00 5.037460000000000271e+00 2.425240000000000062e+00 2.348959999999999937e+00 9.947729999999999961e+00 3.067149999999999821e+00 8.107070000000000221e+00 5.159690000000000332e+00 2.700680000000000192e+00 7.961640000000000050e+00 1.004546999999999990e+01 7.559549999999999770e+00 2.772670000000000190e+00 5.052970000000000184e+00 7.944420000000000037e+00 2.292279999999999873e+00 1.348999999999999921e-01 7.573010000000000019e+00 7.867720000000000269e+00 5.061609999999999943e+00 7.983179999999999943e+00 8.204650000000000887e+00 1.036899000000000015e+01 1.670500000000000040e-01 5.205370000000000275e+00 4.862960000000000171e+00 1.867000000000000048e-01 4.961560000000000414e+00 1.021768999999999927e+01 1.350099999999999911e-01 2.344999999999999862e-02 4.659019999999999939e+00 2.041699999999999904e-01 1.049122000000000021e+01 1.285300000000000054e-01 4.990669999999999717e+00 5.202919999999999767e+00 5.171170000000000044e+00 4.999340000000000117e+00 5.421649999999999636e+00 1.015338999999999992e+01 4.885710000000000441e+00 4.577100000000000057e-01 4.742639999999999745e+00 5.505840000000000067e+00 1.050000999999999962e+01 1.434999999999999991e-02 3.717480000000000118e+00 1.273879999999999901e+00 3.353159999999999918e+00 3.950559999999999850e+00 3.975400000000000045e+00 9.158379999999999299e+00 3.775030000000000108e+00 9.110160000000000480e+00 3.653119999999999923e+00 3.752549999999999830e+00 9.822699999999999321e+00 6.319040000000000212e+00 8.407280000000000086e+00 3.776940000000000186e+00 6.773769999999999847e+00 1.323690000000000033e+00 3.800349999999999895e+00 8.841710000000000846e+00 8.911630000000000607e+00 1.475389999999999979e+00 4.016499999999999737e+00 9.311349999999999127e+00 9.050670000000000215e+00 1.551940000000000097e+00 4.310310000000000308e+00 9.064799999999999525e-01 1.188690000000000024e+00 3.224349999999999827e+00 1.159950000000000037e+00 8.599569999999999936e+00 4.317140000000000200e+00 4.684370000000000367e+00 1.692679999999999962e+00 4.324539999999999829e+00 7.193279999999999674e+00 6.248310000000000031e+00 9.631280000000000285e+00 7.231100000000000305e-01 1.572079999999999922e+00 9.084289999999999310e+00 9.616970000000000240e+00 4.167410000000000281e+00 9.383699999999999264e+00 6.202009999999999579e+00 1.178879999999999928e+00 9.380160000000000053e+00 7.094839999999999591e+00 6.043300000000000338e+00 4.747849999999999682e+00 1.234879999999999978e+00 6.436600000000000321e+00 4.663560000000000372e+00 8.961560000000000414e+00 5.925500000000000211e-01 3.455150000000000166e+00 6.265469999999999651e+00 4.168859999999999566e+00 4.628199999999999648e+00 6.957160000000000011e+00 9.072279999999999234e+00 9.279650000000000176e+00 3.627009999999999845e+00 1.256189999999999918e+00 8.788800000000000168e+00 1.039809999999999901e+00 8.849790000000000489e+00 8.529749999999999943e+00 6.786179999999999879e+00 3.658150000000000013e+00 9.533970000000000056e+00 3.616480000000000139e+00 9.304280000000000328e+00 4.119959999999999845e+00 3.233729999999999993e+00 4.033760000000000012e+00 1.565909999999999913e+00 3.879970000000000141e+00 3.152899999999999814e+00 1.418260000000000076e+00 9.704980000000000828e+00 3.279659999999999798e+00 5.054429999999999978e+00 1.014171999999999940e+01 8.257619999999999294e+00 1.289800000000000058e+00 1.547420000000000018e+00 4.004970000000000141e+00 1.386870000000000047e+00 6.591809999999999725e+00 9.034169999999999590e+00 1.095630000000000104e+00 9.344060000000000699e+00 6.020789999999999864e+00 1.326820000000000110e+00 6.842869999999999564e+00 3.987150000000000194e+00 6.554689999999999905e+00 1.447759999999999936e+00 3.831479999999999997e+00 7.132069999999999688e+00 9.620179999999999509e+00 9.312160000000000437e+00 9.098760000000000403e+00 4.235030000000000072e+00 4.288230000000000430e+00 6.531889999999999752e+00 4.597310000000000230e+00 8.868880000000000763e+00 1.013325000000000031e+01 8.614779999999999660e+00 9.578359999999999985e+00 5.859040000000000248e+00 3.698119999999999852e+00 6.158599999999999852e+00 6.703769999999999563e+00 9.527929999999999566e+00 4.133750000000000036e+00 2.008700000000000152e+00 1.080379999999999896e+00 6.568830000000000169e+00 6.830689999999999706e+00 3.313050000000000050e+00 1.280820000000000070e+00 3.367770000000000152e+00 3.794080000000000119e+00 6.628599999999999604e+00 6.869369999999999976e+00 9.054289999999999949e+00 1.236850000000000005e+00 7.129540000000000433e+00 9.155120000000000147e+00 6.448780000000000179e+00 2.035439999999999916e+00 4.579039999999999999e+00 5.697699999999999987e-01 5.095199999999999729e-01 3.699240000000000084e+00 5.985100000000000087e+00 2.098339999999999872e+00 8.585380000000000678e+00 8.339800000000000324e+00 2.367399999999999949e+00 1.004861000000000004e+01 3.177400000000000224e-01 6.614289999999999559e+00 4.371929999999999872e+00 3.677880000000000038e+00 6.036810000000000009e+00 1.732290000000000108e+00 9.031470000000000553e+00 6.035400000000000098e+00 6.785009999999999764e+00 3.987760000000000193e+00 9.274869999999999948e+00 6.574900000000000411e+00 8.464270000000000849e+00 1.582119999999999971e+00 1.788429999999999964e+00 1.138770000000000060e+00 9.638650000000000162e+00 9.132799999999999807e-01 6.511890000000000178e+00 9.557200000000000140e-01 4.576200000000000268e-01 8.996719999999999828e+00 1.304939999999999989e+00 6.152020000000000266e+00 6.448820000000000441e+00 6.895139999999999603e+00 6.301900000000000279e-01 1.129099999999999993e+00 7.060990000000000322e+00 1.244739999999999958e+00 6.113949999999999996e+00 6.510950000000000237e+00 6.274790000000000312e+00 1.144069999999999920e+00 6.584229999999999805e+00 6.140170000000000350e+00 6.502580000000000027e+00