-8.974326311233038922e+00 -9.608163919721729451e-01 -3.379497579143329933e+00 -9.608163919721729451e-01 -1.509802567956003472e+01 7.365532369235467058e+00 -3.379497579143329933e+00 7.365532369235467058e+00 1.452248587169872707e+01
3.002244573463954680e+01 -2.173913238089118138e+01 1.692829105575123094e+01 -2.173913238089118138e+01 -1.896851623648562679e+01 -6.256684687363547326e+00 1.692829105575123094e+01 -6.256684687363547326e+00 5.395007423861668983e+00
-1.936387592774405420e+01 1.394135700971248726e+00 1.143048614165337007e+01 1.394135700971248726e+00 -2.688963265292234084e+01 -5.370567400892920062e+00 1.143048614165337007e+01 -5.370567400892920062e+00 -1.781020975725523670e+01
1.866010743435342079e+01 -9.055135627233827478e+00 -5.799633159941183225e-01 -9.055135627233827478e+00 2.530368310712804103e+01 5.654964792644119775e+00 -5.799633159941183225e-01 5.654964792644119775e+00 -7.731100793945889116e+00
5.282798246638022732e+01 -4.129746365078025505e+00 -6.782304189812903950e+00 -4.129746365078025505e+00 1.197794055181292228e+00 1.262697625393884415e+00 -6.782304189812903950e+00 1.262697625393884415e+00 4.700151251376278339e+01
3.063922610020877357e+01 1.789927266088270130e+01 -6.185561346681526906e+00 1.789927266088270130e+01 -2.720059834746201055e+00 -2.512011970583438369e+01 -6.185561346681526906e+00 -2.512011970583438369e+01 4.027016754391126341e+01
-3.330706448444947654e+01 -1.110671860074723760e+01 -1.257991849250136340e+01 -1.110671860074723760e+01 -6.633110897644051818e+01 -1.674589406446414186e+00 -1.257991849250136340e+01 -1.674589406446414186e+00 -1.363636400798524306e+01
1.527601166364072149e+01 -1.144854984453741409e+01 -7.677017544031198959e+00 -1.144854984453741409e+01 -7.204358550050488930e+01 -5.691454159632026943e+00 -7.677017544031198959e+00 -5.691454159632026943e+00 1.568766979830971309e+01
1.899540017791471769e+01 -8.087682233239720020e+00 2.016770666076752150e+01 -8.087682233239720020e+00 -1.607828901693935819e+01 -1.398742438592587867e+01 2.016770666076752150e+01 -1.398742438592587867e+01 7.626383294670678659e+00
-8.844734436118841359e+00 9.233786604440821222e+00 5.746392815070770155e+00 9.233786604440821222e+00 5.132792987621715319e+00 6.473498466927773087e+00 5.746392815070770155e+00 6.473498466927773087e+00 -4.095206929657687311e+01
-3.238186681674081058e+01 -7.509964986758508765e+00 7.003949000197918551e+00 -7.509964986758508765e+00 -5.597797226331515219e+01 -7.772211643575086981e+00 7.003949000197918551e+00 -7.772211643575086981e+00 -2.120248740786839292e+01
-3.099599346875347905e+01 -4.044689473224227783e+00 -2.533241563854076617e+00 -4.044689473224227783e+00 -7.192703738149546666e+01 -6.529468083060695704e+00 -2.533241563854076617e+00 -6.529468083060695704e+00 -1.204487401500025001e+01
-1.306108088468769779e+01 7.532771854075588358e+00 -2.698553743053360776e+01 7.532771854075588358e+00 -1.448451036087213062e+01 9.650483695306066423e+00 -2.698553743053360776e+01 9.650483695306066423e+00 -4.519853835465833747e+00
2.455253472070292986e+01 -1.192901836415367178e+01 -2.091182805538765521e+01 -1.192901836415367178e+01 -1.778973997363823401e+01 8.603948406705189456e+00 -2.091182805538765521e+01 8.603948406705189456e+00 2.656378447830438105e+01
2.434598290275339494e+01 7.889192025392300245e+00 1.862661085871560118e+01 7.889192025392300245e+00 -3.796717346025302220e+01 3.831057265410326984e+00 1.862661085871560118e+01 3.831057265410326984e+00 2.909541432577968578e+01
7.659664497382833837e+00 -1.043022865049768022e+01 -2.599145821958605396e+01 -1.043022865049768022e+01 -1.574594878211200744e+01 2.403062608365372554e+00 -2.599145821958605396e+01 2.403062608365372554e+00 -1.546180540485792010e-01
-4.094037795216494402e+01 -1.792016378991892367e+01 3.794270502420691749e+00 -1.792016378991892367e+01 -5.367642862175367924e+01 9.822634899319282908e+00 3.794270502420691749e+00 9.822634899319282908e+00 -4.922274379533495647e+01
-1.346022473253164620e+01 5.074729520076989964e+00 -1.661576195572791548e+01 5.074729520076989964e+00 -3.686350939704900753e+01 9.582127666928025533e+00 -1.661576195572791548e+01 9.582127666928025533e+00 -6.844465888366907613e+00
1.913991597844940440e+00 -5.056227756332643430e+00 6.597987428472328553e+00 -5.056227756332643430e+00 -4.864044982991789112e+01 9.750460119781266144e+00 6.597987428472328553e+00 9.750460119781266144e+00 -5.632710259011046716e+00
1.404138805467418827e+01 8.662979584621037787e+00 2.390223127872206810e+00 8.662979584621037787e+00 6.759738948685254378e+00 -4.660390151952306326e+00 2.390223127872206810e+00 -4.660390151952306326e+00 -3.369757875122342483e+00
1.031064603523648415e+01 6.876901415395329842e+00 1.782723413096231946e+00 6.876901415395329842e+00 1.402457181027670963e+01 1.138701944661781695e+01 1.782723413096231946e+00 1.138701944661781695e+01 1.298983311379706329e+01
3.762273429028098093e+01 7.807532092080914587e+00 -1.039766214488696150e+01 7.807532092080914587e+00 -5.231831830016351326e+00 -9.048271564135765388e+00 -1.039766214488696150e+01 -9.048271564135765388e+00 2.533276677284606038e+01
4.218800070268553526e+00 2.177258106102302904e+01 8.480833878399568704e+00 2.177258106102302904e+01 -1.503115998720716107e+01 -2.727079403236745847e+01 8.480833878399568704e+00 -2.727079403236745847e+01 6.362434496444774545e+00
-3.449748836525975548e+01 -1.664637177023399861e+00 -1.118547341308274490e+01 -1.664637177023399861e+00 -5.714249568807357349e+01 -4.412344093092554154e+00 -1.118547341308274490e+01 -4.412344093092554154e+00 -1.171578720226003512e+01
-4.036400874879979739e+01 -6.036049160570293282e+00 6.081994364087184302e+00 -6.036049160570293282e+00 -6.386755627653089107e+01 9.735442045712327186e+00 6.081994364087184302e+00 9.735442045712327186e+00 -1.656597791358004912e+01
1.213068471750994171e+01 1.868622524856819922e+01 -1.755387739148499904e+01 1.868622524856819922e+01 -2.284743170818846991e+01 -5.019543040280119328e+00 -1.755387739148499904e+01 -5.019543040280119328e+00 3.333383387320768065e+01
8.922292918529394967e+01 1.964200088498469610e+00 -4.110260246965897757e+00 1.964200088498469610e+00 7.191123725220332119e+01 1.092886078736427358e+01 -4.110260246965897757e+00 1.092886078736427358e+01 9.871558232489142881e+01
-4.562735939087466441e+00 -1.474822149236148228e+01 5.000397999974270036e+00 -1.474822149236148228e+01 -7.357889226797533411e+01 1.538597002715541118e+00 5.000397999974270036e+00 1.538597002715541118e+00 7.171760667720322502e+00
1.963716259547134690e+00 -2.083532640394232804e-01 1.375538967739931984e+01 -2.083532640394232804e-01 4.477608888802887321e+00 -9.642981814616387481e+00 1.375538967739931984e+01 -9.642981814616387481e+00 2.163215835267325460e+01
9.524835255073886842e+00 -3.775960712065760672e-01 -3.085492514602340641e+00 -3.775960712065760672e-01 6.699813101232316548e+00 1.876524918393077224e+00 -3.085492514602340641e+00 1.876524918393077224e+00 4.137639792145706963e+01
-2.337231567727736348e+01 8.362474595795648113e+00 2.456948628373514243e+00 8.362474595795648113e+00 -5.423478300522190665e+01 -6.178678740144037285e+00 2.456948628373514243e+00 -6.178678740144037285e+00 -1.932388896290617097e+01
-6.019789007980484108e+00 8.837062549702174863e+00 2.421943326572289834e+01 8.837062549702174863e+00 -5.186931784154902658e+01 -9.231533625438871127e+00 2.421943326572289834e+01 -9.231533625438871127e+00 2.694706895131383284e+00
3.037463051993662333e+01 -2.378432444259857448e+00 -4.399505819336487988e+00 -2.378432444259857448e+00 -2.146934905734995169e+01 -6.425566723070243569e+00 -4.399505819336487988e+00 -6.425566723070243569e+00 4.338621751659718639e-02
-4.590346969784305742e+01 1.292253872173879969e+01 -1.351834559819769588e+01 1.292253872173879969e+01 -4.084364104537202422e+01 -8.543722061013967917e+00 -1.351834559819769588e+01 -8.543722061013967917e+00 -1.677824988293264852e+01
4.291157662147733731e+01 2.744636824320647506e+01 -8.402178631300937894e+00 2.744636824320647506e+01 2.486571858885466924e+01 6.567548124723348479e+00 -8.402178631300937894e+00 6.567548124723348479e+00 4.653683269471271444e+01
2.775623388187712948e+01 2.251096303079258842e-01 6.763522426611387139e+00 2.251096303079258842e-01 5.633471527427368564e+00 -1.238724609511677421e+01 6.763522426611387139e+00 -1.238724609511677421e+01 4.088622519898166985e+01
-1.942041937632550841e+01 9.025427535953010505e+00 -1.473027509122619705e+01 9.025427535953010505e+00 -1.365139305491263144e+01 -5.924230535660720776e+00 -1.473027509122619705e+01 -5.924230535660720776e+00 -1.171607291859557876e+01
-2.053403281225985477e+00 -1.200244884094631637e+01 -2.040047670808824520e+01 -1.200244884094631637e+01 -4.663247574474618773e+01 1.706897406979030052e+01 -2.040047670808824520e+01 1.706897406979030052e+01 3.384012038008761181e+01
-2.279036097016941653e+01 -3.079900723035511323e-01 -1.995177282689929754e+01 -3.079900723035511323e-01 -2.576088399722875621e+01 -9.156252532945950762e+00 -1.995177282689929754e+01 -9.156252532945950762e+00 -3.075374337038300965e+01
2.146100177317383029e+01 5.045078568685586795e+00 3.130684684703530785e+00 5.045078568685586795e+00 -4.576042843715272923e+00 1.073324702184219603e+00 3.130684684703530785e+00 1.073324702184219603e+00 2.071045411953737769e+01
3.270916232669778623e+01 -5.285521540995410383e+00 5.907882557163776305e+00 -5.285521540995410383e+00 1.049804868158387983e+01 3.690271654049763761e+00 5.907882557163776305e+00 3.690271654049763761e+00 1.455737961536336478e+01
-1.223965974759523867e+01 -5.237027193300321848e+00 -1.134864837663919346e+01 -5.237027193300321848e+00 -5.147304263483946585e+01 8.029917719065917225e+00 -1.134864837663919346e+01 8.029917719065917225e+00 -1.625630873946472477e+01
-3.288903587203767387e+01 -1.131879439469389048e+01 -1.646839667680152175e+01 -1.131879439469389048e+01 -6.516618372095828704e+01 5.238117134734395108e+00 -1.646839667680152175e+01 5.238117134734395108e+00 -3.195683816386817000e+01
1.525281904085384355e+01 -7.770054441274377943e+00 3.516615197547346749e+00 -7.770054441274377943e+00 -1.717628748295863517e+01 -1.663817297765706371e+01 3.516615197547346749e+00 -1.663817297765706371e+01 8.834800956161604546e+00
-2.635468877118003306e+01 -4.350144239482519382e+00 1.620660177679436265e+00 -4.350144239482519382e+00 -6.565689646362982046e+01 -4.407674207082606266e+00 1.620660177679436265e+00 -4.407674207082606266e+00 -2.722000863156978312e+01
-2.790106762398098894e+01 -6.650753119905455257e+00 -1.031839663420275421e+01 -6.650753119905455257e+00 -6.573548488202349915e+01 -8.340920068204287219e+00 -1.031839663420275421e+01 -8.340920068204287219e+00 -4.287624867333115475e+01
1.158102255528268465e+01 9.110142946795971142e+00 1.889452278653203265e+01 9.110142946795971142e+00 -3.752919274624478874e+01 -3.051485203252049860e+00 1.889452278653203265e+01 -3.051485203252049860e+00 3.198819903340257653e+01
-3.030159433767608235e+01 -1.740223122888217588e+01 -2.697240558190584725e+00 -1.740223122888217588e+01 -2.918609652403436527e+01 9.753196846603316317e+00 -2.697240558190584725e+00 9.753196846603316317e+00 -2.369430200172319445e+01
3.903672711382296967e+01 9.716801778843549897e+00 -2.901930568925666520e+01 9.716801778843549897e+00 -2.232218669499181019e+00 3.446361506721591361e+00 -2.901930568925666520e+01 3.446361506721591361e+00 7.645473650491373974e+01
-1.660664311293831474e+01 5.001426460196021218e+00 -1.898550329577772189e+01 5.001426460196021218e+00 -5.956989303649057632e+01 7.741822407573467402e+00 -1.898550329577772189e+01 7.741822407573467402e+00 5.922787525847625467e+00
-2.122286591353361018e+01 1.132936727348861528e+00 2.675497880752431445e+00 1.132936727348861528e+00 -3.537715080038361748e+01 -6.724473688495359092e+00 2.675497880752431445e+00 -6.724473688495359092e+00 -8.902831283921782912e+00
-5.871348475958410518e+01 3.783165027448063267e+00 2.522411928023859051e+00 3.783165027448063267e+00 -4.513796301334708438e+00 1.627000030479381110e+01 2.522411928023859051e+00 1.627000030479381110e+01 -2.415332096256246075e+01
7.575868301415244588e+00 1.844211498032194141e-01 -7.531526139411750087e+00 1.844211498032194141e-01 -5.369381481573324777e+01 -2.624686000060784785e+00 -7.531526139411750087e+00 -2.624686000060784785e+00 3.015624248489105952e+01
1.030573884361824888e+01 -7.368022318381399316e+00 -8.407739383720736370e+00 -7.368022318381399316e+00 -4.577647837440223633e+00 -1.318683414519090391e+01 -8.407739383720736370e+00 -1.318683414519090391e+01 1.570812014671159496e+00
-6.552166969828854803e+01 2.380366004330307206e+00 -9.479585042295106234e+00 2.380366004330307206e+00 -3.633034391290534160e+01 1.060514356037523598e+01 -9.479585042295106234e+00 1.060514356037523598e+01 -4.209366213652059940e+01
-1.928363089397276653e+01 -3.555783882533692264e+00 -1.410041143760983218e+01 -3.555783882533692264e+00 -3.585201895463040245e+01 2.442176923721982806e+00 -1.410041143760983218e+01 2.442176923721982806e+00 -7.843507673755178544e+00
5.813915336517284516e+01 6.389610051391596102e+00 7.524179957321210921e+00 6.389610051391596102e+00 2.278458944068702152e+01 1.987640652292704502e+01 7.524179957321210921e+00 1.987640652292704502e+01 5.046630841015131352e+01
2.533629425098330756e+01 -1.039395830626979844e+01 -1.333867884840947093e+00 -1.039395830626979844e+01 -3.118791800802259573e+01 -1.380805253197986993e+01 -1.333867884840947093e+00 -1.380805253197986993e+01 -2.381435183657070187e+00
-3.129970014721912719e+01 1.678892243997824352e+01 -6.215052280564684395e+00 1.678892243997824352e+01 -5.168037133963054686e+01 -9.874687468773721832e+00 -6.215052280564684395e+00 -9.874687468773721832e+00 -1.698574699330955440e+01
5.906971501118235324e+00 -1.487591310133011646e+01 1.014072429584761892e+01 -1.487591310133011646e+01 -6.360663164552081028e+00 6.803726330805765166e+00 1.014072429584761892e+01 6.803726330805765166e+00 1.547206455984386686e+01
-2.082917824476208679e+01 4.250957370407686398e+00 8.667617513623003589e+00 4.250957370407686398e+00 -7.938219507022637345e+01 -5.949478953319228047e+00 8.667617513623003589e+00 -5.949478953319228047e+00 8.110512220227915847e+00
5.949283676044601776e+01 2.586905872143078877e+00 3.123823366413894576e+00 2.586905872143078877e+00 4.179691357485513237e+00 1.320873531511605492e+01 3.123823366413894576e+00 1.320873531511605492e+01 6.830250339997705566e+01
2.493063342684362027e+00 1.014934451422560535e+01 -7.460469542667627074e+00 1.014934451422560535e+01 2.211279177943435315e+01 -2.983731987867436763e-01 -7.460469542667627074e+00 -2.983731987867436763e-01 9.877346432613888894e+00
5.091876749258210211e+00 -2.668682623713571544e+01 -6.610337041693925997e+00 -2.668682623713571544e+01 -1.239418084543269671e+01 7.859141643950205314e+00 -6.610337041693925997e+00 7.859141643950205314e+00 4.111632917244995689e+00
5.953700636265649848e+01 -4.380178505942248890e+00 -1.498873525282768426e+01 -4.380178505942248890e+00 4.812428768693482795e+01 -4.016177915880511762e+00 -1.498873525282768426e+01 -4.016177915880511762e+00 5.603518853135221178e+01
3.511533312173148857e+01 -7.697739498632130584e+00 3.894772602032853026e+00 -7.697739498632130584e+00 -4.474505463382417503e+00 2.875823343705235846e+00 3.894772602032853026e+00 2.875823343705235846e+00 3.070072728217838431e+01
-4.272134973907280475e+00 1.003772526384155661e+01 -7.783161506416589326e-01 1.003772526384155661e+01 -5.062243443847361846e+01 1.471827602433098470e+01 -7.783161506416589326e-01 1.471827602433098470e+01 4.585489128467312270e+00
-1.655583110423441084e+01 -5.624530691309096220e+00 3.990722418303327856e+00 -5.624530691309096220e+00 -2.780042056131658867e+01 4.874787697346261162e+00 3.990722418303327856e+00 4.874787697346261162e+00 1.833686144752032021e+01
3.872378247136055052e+01 1.321292621886981955e+01 9.573892484071835796e+00 1.321292621886981955e+01 -2.634183394800738398e+01 -7.557493102554639464e+00 9.573892484071835796e+00 -7.557493102554639464e+00 1.297366469274468770e+01
2.973248138678239272e+01 -1.980687029982104164e-01 1.544562155497026090e+01 -1.980687029982104164e-01 -3.011793781958708038e+01 -1.713521136594424021e+01 1.544562155497026090e+01 -1.713521136594424021e+01 3.981419464920465145e+01
-1.274404690533444651e+01 -2.470771136032574944e+01 1.430318224565293761e+01 -2.470771136032574944e+01 -1.189671975553776129e+01 -1.356131198445461550e+01 1.430318224565293761e+01 -1.356131198445461550e+01 -8.041828800045763614e+00
4.621914333494183680e+00 3.633727652193432078e+00 6.920311124185006157e+00 3.633727652193432078e+00 -2.818201619295922455e+01 2.032052387550422168e+01 6.920311124185006157e+00 2.032052387550422168e+01 5.313306929965616376e+00
-3.369290030740150144e+01 9.236764166081499638e+00 -6.208438625076705186e+00 9.236764166081499638e+00 -5.950538978023908498e+01 -2.553742606175851915e+00 -6.208438625076705186e+00 -2.553742606175851915e+00 -3.619696713175910929e+01
5.451199622608608308e+01 -9.542353599482641613e+00 1.596814640073357605e+00 -9.542353599482641613e+00 3.274712744948747201e+01 3.414844889715284104e+00 1.596814640073357605e+00 3.414844889715284104e+00 7.500679419924732372e+01
2.334835887503568230e+01 -1.862632287175222956e+01 3.792803973721474708e+00 -1.862632287175222956e+01 3.003110521528179433e+01 7.549691243146344100e+00 3.792803973721474708e+00 7.549691243146344100e+00 1.339954084369484910e+01
-1.760060304249262586e+01 -5.058805135641546435e-01 1.497939506497828077e+01 -5.058805135641546435e-01 -4.996787424869511796e+01 1.392848553381577092e+00 1.497939506497828077e+01 1.392848553381577092e+00 -2.271238453923738021e+01
-2.698819481594170711e+01 -5.692014064060008094e-01 -4.303801142156590487e+00 -5.692014064060008094e-01 -2.836792730613288427e+01 8.948262877759553646e+00 -4.303801142156590487e+00 8.948262877759553646e+00 -3.640318302816372409e+01
-1.394745480304504603e+01 -7.711991686523338441e-01 -3.516719336194864987e+00 -7.711991686523338441e-01 -2.586652020393957940e+01 -3.176215487267617377e+00 -3.516719336194864987e+00 -3.176215487267617377e+00 4.630448557200857351e+00
-4.666057798968127912e+01 8.067432673836393064e+00 8.155776831592705278e+00 8.067432673836393064e+00 -6.577974377943810680e+01 -4.176228019141274395e+00 8.155776831592705278e+00 -4.176228019141274395e+00 -2.551004872251524347e+01
-1.234960867719241939e+01 -1.084691374412158993e+01 -5.768204277623750542e+00 -1.084691374412158993e+01 -2.421336178507193893e+01 -5.130936766247931047e+00 -5.768204277623750542e+00 -5.130936766247931047e+00 -2.601457018209402605e+01
1.433949203167152042e+01 -4.286587601879722875e+00 1.062834305612939367e+01 -4.286587601879722875e+00 -3.128643673017406712e+01 -1.131101963036639546e+01 1.062834305612939367e+01 -1.131101963036639546e+01 9.465636284231755404e-01
6.046097057168973166e+00 1.990999820644473894e+00 -5.870743529028374041e+00 1.990999820644473894e+00 3.925141236782658805e+00 -2.376153216109886390e+00 -5.870743529028374041e+00 -2.376153216109886390e+00 1.228355322671518657e+01
2.291127433981567041e+00 -4.438702816833208331e+00 1.320515449845792411e+01 -4.438702816833208331e+00 -9.012062732956307443e+00 -1.139830379378499181e+01 1.320515449845792411e+01 -1.139830379378499181e+01 5.725679782674250617e+01
5.464468432182559354e+01 -1.144798297220918215e+01 -1.635450184041010946e+00 -1.144798297220918215e+01 3.575531429563041819e+00 -6.735785015938545506e+00 -1.635450184041010946e+00 -6.735785015938545506e+00 5.347755959818883298e+01
-1.988350059995097752e+01 2.324354555530755206e+01 -1.604762434654802306e+01 2.324354555530755206e+01 -5.975653514315857961e+01 -1.802094221725492940e+00 -1.604762434654802306e+01 -1.802094221725492940e+00 -3.208535428047126459e+01
2.048789530083051247e+01 -8.729155530309453681e+00 -3.449268913547710813e+00 -8.729155530309453681e+00 1.396538098125159699e+01 9.052881354720289764e+00 -3.449268913547710813e+00 9.052881354720289764e+00 2.187057742122280146e+01
3.095222727187477219e+01 -1.548729217494286203e+01 -6.549007935738742070e+00 -1.548729217494286203e+01 -1.787845721778963837e+00 -5.094063022928266626e+00 -6.549007935738742070e+00 -5.094063022928266626e+00 2.587782112917515676e+01
4.732117846849056342e+00 -5.427702264053663406e+00 -2.308250495108288547e+01 -5.427702264053663406e+00 -1.744679358055626395e+01 -1.105282857340777802e+01 -2.308250495108288547e+01 -1.105282857340777802e+01 1.246662651187073401e+01
-4.058463122788908350e+01 -1.812380211863305135e+01 6.335154974389437532e-01 -1.812380211863305135e+01 -6.519187295153255945e+01 1.547612190669694066e+01 6.335154974389437532e-01 1.547612190669694066e+01 -2.295542043862947423e+01
4.889101896027231930e+01 1.672193656180690979e+01 -2.056497557164792767e+00 1.672193656180690979e+01 5.416771384633842779e+00 4.036156548023985380e+00 -2.056497557164792767e+00 4.036156548023985380e+00 4.119022961198584909e+01
2.855633921683407905e+01 7.969599052991196864e+00 2.305344694920387294e+00 7.969599052991196864e+00 1.955642039395155907e+00 -1.750883657284125761e+01 2.305344694920387294e+00 -1.750883657284125761e+01 4.423732501636294501e+01
2.871887939791231403e+01 2.667023225605340553e+00 -5.387902087400551210e-01 2.667023225605340553e+00 6.497852576737940922e+00 -1.209817263130001308e+01 -5.387902087400551210e-01 -1.209817263130001308e+01 1.141169751284507861e+01
1.786109730732832546e+01 6.189933392672982926e+00 -3.887013195977063185e-01 6.189933392672982926e+00 1.579182201029470534e+01 1.540252808201004164e+01 -3.887013195977063185e-01 1.540252808201004164e+01 -1.851608698341683734e+01
-5.255601547587741607e+01 -1.873090516398749728e+01 1.317810959316526009e+01 -1.873090516398749728e+01 -4.139940261255868847e+01 5.359587735030357791e+00 1.317810959316526009e+01 5.359587735030357791e+00 -2.262360655006497723e+01
-3.733681989981580074e+01 -5.993623082308219274e-01 1.868818468916022013e+01 -5.993623082308219274e-01 -7.087340437413884331e+01 2.695180901515880834e+01 1.868818468916022013e+01 2.695180901515880834e+01 -2.477142290421144821e+01
3.794208399813651766e+01 2.818862490463936332e+00 -1.082310691256401292e+01 2.818862490463936332e+00 2.157423524988272234e+01 6.738100695654327232e+00 -1.082310691256401292e+01 6.738100695654327232e+00 5.546352368268600941e+01
-2.074656054519710935e+01 -5.897074180499343177e-01 2.878897751110736092e+00 -5.897074180499343177e-01 1.264542355059677092e+01 -7.854087595695036228e+00 2.878897751110736092e+00 -7.854087595695036228e+00 -5.365260659098953333e+00
9.657401095432975424e+00 2.975079303243416007e+01 3.372905914192581012e+00 2.975079303243416007e+01 -1.441438705211193216e+01 -1.078659872123446206e+01 3.372905914192581012e+00 -1.078659872123446206e+01 1.737790832244584394e+01
-5.612361191539057614e+01 7.096619168834079616e+00 -5.567875234610693003e-01 7.096619168834079616e+00 -5.063597889692957921e+01 -1.804683701160536335e+00 -5.567875234610693003e-01 -1.804683701160536335e+00 -2.889144584197014254e+01
2.103303464839953918e+01 -2.757844248476495341e+00 -5.901921399045418681e+00 -2.757844248476495341e+00 1.874918453601926061e+01 1.428434254993122643e+01 -5.901921399045418681e+00 1.428434254993122643e+01 1.757171891450076018e+01
-5.829722765780012139e+00 -6.754919786498674306e+00 -4.774139446145220234e+00 -6.754919786498674306e+00 -4.751811520057946581e+01 2.528650180520128021e+00 -4.774139446145220234e+00 2.528650180520128021e+00 2.256970826991701706e+00
2.203771163367409525e+00 -6.803450312744092621e-01 2.514683943758411289e+01 -6.803450312744092621e-01 -4.192522419818374857e+01 8.409996185733039198e+00 2.514683943758411289e+01 8.409996185733039198e+00 8.506931269266194917e+00
-6.178245737820072137e+00 -8.304556196603172236e-01 -4.228506497699751066e+00 -8.304556196603172236e-01 -3.815263183738057062e+00 -1.646914953318752595e+00 -4.228506497699751066e+00 -1.646914953318752595e+00 1.340128662441764318e+00
5.930449499672617364e+00 1.636063020631185472e+00 -9.960413735067264795e+00 1.636063020631185472e+00 -3.443086142341664413e+01 4.674657267270930561e+00 -9.960413735067264795e+00 4.674657267270930561e+00 9.656376830732535055e+00
2.103538498899494513e+01 -1.347248480226992839e+01 -4.938256280369352602e+00 -1.347248480226992839e+01 -1.440296958781806858e+01 5.238036625451522710e+00 -4.938256280369352602e+00 5.238036625451522710e+00 1.827663302006249779e+01
-2.208659833665768346e+01 -1.450631073893521616e+01 -2.262595618415519372e+00 -1.450631073893521616e+01 -1.929131565507815083e+01 -2.795933137256689793e+00 -2.262595618415519372e+00 -2.795933137256689793e+00 -3.532835096634919125e+01
-1.177691915835502590e+00 -8.513451184125521820e+00 -1.288167270738965797e+01 -8.513451184125521820e+00 2.577014187732723371e+01 3.968573290682703814e+00 -1.288167270738965797e+01 3.968573290682703814e+00 -2.765247420501167497e+01
1.325164227521295146e+01 -1.237357028879347354e+01 -1.202836443810938327e+01 -1.237357028879347354e+01 -2.518734603818849749e+01 -1.787507369581230066e+01 -1.202836443810938327e+01 -1.787507369581230066e+01 -1.757036205468871515e+01
-9.959112961853618273e+00 -5.633049936550171388e+00 -6.802559368829901310e-01 -5.633049936550171388e+00 -1.862047797589681863e+01 -4.803750076459646579e+00 -6.802559368829901310e-01 -4.803750076459646579e+00 -1.247330314084371850e+01
-3.548877855775539558e+01 -3.203067445659878221e+00 -1.375434475811283264e+01 -3.203067445659878221e+00 -8.106696663913055545e+01 1.776008583007494934e+01 -1.375434475811283264e+01 1.776008583007494934e+01 -2.184394553249042659e+01
-2.443840529226226721e+01 2.963523259131573440e+00 8.049117691228458327e+00 2.963523259131573440e+00 -5.089765283359928105e+01 6.123183277018569015e+00 8.049117691228458327e+00 6.123183277018569015e+00 -5.506305225266806502e+01
-1.139216551843636571e+00 4.953036469904439798e+00 1.082281672488048407e+01 4.953036469904439798e+00 2.050637241522602849e+00 8.673598425647680799e+00 1.082281672488048407e+01 8.673598425647680799e+00 2.803268809434039355e+01
4.429215441178319423e+01 -6.770885287088280968e+00 -6.817888387183028698e-01 -6.770885287088280968e+00 5.147747852368041777e+00 -2.050357370218210296e+00 -6.817888387183028698e-01 -2.050357370218210296e+00 4.324727740536049936e+01
2.049907618832329703e+01 8.810891229668028402e+00 -1.189684662545682059e+01 8.810891229668028402e+00 -3.138790865840523381e+01 -1.780696404606789685e+01 -1.189684662545682059e+01 -1.780696404606789685e+01 3.863547372787753886e+01
1.486586326608091646e+01 -4.857094663161269921e+00 -6.400156314031908877e+00 -4.857094663161269921e+00 -1.554977184854197070e+01 -2.082375228441229353e+01 -6.400156314031908877e+00 -2.082375228441229353e+01 4.142958667954337670e+01
2.984595225217034464e+00 7.789391923318024880e+00 -1.500100007290950277e+00 7.789391923318024880e+00 -2.733176270010474340e+01 2.813504344189157624e+00 -1.500100007290950277e+00 2.813504344189157624e+00 1.549639115016006485e+01
-5.498945129671056975e+00 -1.331190731917870185e+00 -4.353328152942233520e-01 -1.331190731917870185e+00 -4.306164743301128084e+01 1.006112090300014650e+01 -4.353328152942233520e-01 1.006112090300014650e+01 4.703343291150304140e+00
1.747934420706187097e+01 -3.918905227437469385e+00 3.693505747993195421e+00 -3.918905227437469385e+00 -4.214512880912234749e+01 -2.906337644503822304e+01 3.693505747993195421e+00 -2.906337644503822304e+01 -1.370973326258597247e+01
4.653901254074567007e+00 -9.567192138119128941e+00 1.844361262768830656e+01 -9.567192138119128941e+00 -5.418149872769536302e+01 2.389506084202262315e+01 1.844361262768830656e+01 2.389506084202262315e+01 7.015393790564017351e+00
-2.940400862536121540e+00 -1.376966378250532763e+01 -7.177707571973559908e+00 -1.376966378250532763e+01 -5.947745570567634843e+01 2.243673929985087767e+01 -7.177707571973559908e+00 2.243673929985087767e+01 -8.270281379147672141e+00
1.083736179711823766e+01 1.218803670405517536e+01 -4.208865720324763693e+00 1.218803670405517536e+01 -5.705697556231367429e+01 -4.610646651606582047e+00 -4.208865720324763693e+00 -4.610646651606582047e+00 -3.490905369072109798e-01
-2.291023111325261929e+00 -9.722237884265789276e+00 6.226734490463927685e+00 -9.722237884265789276e+00 -4.886026655007750463e+01 -2.156612298825003649e+01 6.226734490463927685e+00 -2.156612298825003649e+01 1.940306097371862748e+01
-6.357141474567622019e+00 2.570658351725813251e+00 2.117177050163108731e+01 2.570658351725813251e+00 -4.489260920867372562e+01 1.828230902443592143e+01 2.117177050163108731e+01 1.828230902443592143e+01 -1.150446367888275923e+00
3.363542615736726304e+01 -1.979109984610596840e+00 -2.176993938760706515e-01 -1.979109984610596840e+00 -5.460765339249471495e+00 -1.836647132870725585e+01 -2.176993938760706515e-01 -1.836647132870725585e+01 4.737309555365945357e+01
-5.071081763912204110e+00 -5.063848455752060218e+00 2.747359007170628864e+00 -5.063848455752060218e+00 -3.901575889324035273e+01 -4.196654343726749836e+00 2.747359007170628864e+00 -4.196654343726749836e+00 -1.490264073645737319e+01
1.966717581242465229e+01 -2.262820788920164361e+01 -5.149630774064700489e+00 -2.262820788920164361e+01 2.273888860037695991e+01 -2.594676113631576575e-01 -5.149630774064700489e+00 -2.594676113631576575e-01 3.368406620491040826e+01
3.014324824859315299e+01 -7.498298401272134317e-01 -2.594136781929626157e+00 -7.498298401272134317e-01 -1.592540808563166443e+01 -5.845344562024003210e+00 -2.594136781929626157e+00 -5.845344562024003210e+00 1.777715232568717596e+01
4.982536529024350358e+01 1.163050381818740142e+01 -1.044743286474240085e+00 1.163050381818740142e+01 9.302726438168624767e+00 -1.696858457120155483e+00 -1.044743286474240085e+00 -1.696858457120155483e+00 5.051968893751288192e+01
-3.229851190631931246e+01 1.267553804207793622e+00 -1.972236338137793865e+01 1.267553804207793622e+00 -6.661781928067236436e+01 -1.282721929807997796e+01 -1.972236338137793865e+01 -1.282721929807997796e+01 -1.110961761169201800e+01
-1.463125143093924052e+01 6.387005341104159406e+00 1.196792315108659821e+01 6.387005341104159406e+00 1.916389630431388102e+00 1.947389988172440578e+00 1.196792315108659821e+01 1.947389988172440578e+00 -1.836434452193362077e+01