-9.335732048300000088e+02
-9.280291825399999652e+02
-9.240890765999999985e+02
-9.232949719900000218e+02
-9.261306071899999779e+02
-9.284933265199999823e+02
-9.360070539700000154e+02
-9.326048448300000473e+02
-9.371682530099999440e+02
-9.252483948699999701e+02
-9.479701210700000047e+02
-9.332545908099999679e+02
-9.305103666899999553e+02
-9.276254266099999768e+02
-9.446634631800000079e+02
-9.346570061899999473e+02
-9.306617995399999472e+02
-9.238356522799999766e+02
-9.238512276899999733e+02
-9.276425006599999961e+02
-9.411720241399999622e+02
-9.233833225399999947e+02
-9.226835643199999595e+02
-9.371088835399999653e+02
-9.449156133100000261e+02
-9.304214980799999921e+02
-9.318224432399999841e+02
-9.183758733099999745e+02
-9.299261132000000316e+02
-9.211856114099999786e+02
-9.391655838799999856e+02
-9.509222502300000315e+02
-9.386810315100000253e+02
-9.481385847799999738e+02
-9.372514007900000479e+02
-9.217502524599999560e+02
-9.275623556499999722e+02
-9.228338789099999531e+02
-9.189000939300000255e+02
-9.279453094299999520e+02
-9.223038217299999815e+02
-9.248603030699999863e+02
-9.228203386799999635e+02
-9.282093242099999770e+02
-9.361773353700000371e+02
-9.222350513799999590e+02
-9.484228173400000514e+02
-9.329161350000000539e+02
-9.295247741700000006e+02
-9.335931536900000083e+02
-9.291601761599999918e+02
-9.211776691000000028e+02
-9.513682955100000527e+02
-9.464741454200000135e+02
-9.486689933200000269e+02
-9.531352582800000164e+02
-9.330876298900000165e+02
-9.358291215000000420e+02
-9.277402517100000523e+02
-9.282787327900000491e+02
-9.227836309299999584e+02
-9.463197171100000560e+02
-9.177019370799999933e+02
-9.269698395499999606e+02
-9.325854190000000017e+02
-9.302020289299999831e+02
-9.304273437900000090e+02
-9.348156699500000286e+02
-9.393691461600000139e+02
-9.442257117699999753e+02
-9.218036133299999619e+02
-9.282681204100000514e+02
-9.246540540400000054e+02
-9.282069268499999453e+02
-9.239725388399999702e+02
-9.226805754399999842e+02
-9.216723125099999834e+02
-9.389717037299999447e+02
-9.360361532299999681e+02
-9.289797325099999625e+02
-9.351855482199999869e+02
-9.182453520699999672e+02
-9.381487572500000169e+02
-9.352141049699999940e+02
-9.220431086700000378e+02
-9.240840144899999586e+02
-9.247219483300000320e+02
-9.249257087099999808e+02
-9.461791809899999635e+02
-9.226927895600000511e+02
-9.499550301499999705e+02
-9.319044103899999527e+02
-9.211996932299999798e+02
-9.248307730799999717e+02
-9.246333410099999810e+02
-9.300868752999999742e+02
-9.388701686099999506e+02
-9.298125013200000240e+02
-9.255461950999999772e+02
-9.198811743400000296e+02
