-9.126422323100000540e+02
-9.069664181299999655e+02
-9.056988398500000130e+02
-9.132602256699999543e+02
-9.103404132099999515e+02
-9.054110613100000364e+02
-9.106323787999999695e+02
-9.019835084799999549e+02
-9.128179639500000349e+02
-9.113698276300000316e+02
-9.091803817300000219e+02
-9.156818470499999876e+02
-9.115204523500000278e+02
-9.034610355300000037e+02
-9.020914538499999935e+02
-9.191917213499999662e+02
-9.047863257499999463e+02
-9.079796969699999636e+02
-9.109829219199999670e+02
-9.088512151700000459e+02
-9.011007134999999835e+02
-9.113441473999999971e+02
-9.155572717700000567e+02
-9.036186577800000350e+02
-9.119870791299999837e+02
-8.970011920199999622e+02
-9.043132154700000456e+02
-9.099088680700000396e+02
-9.018006417000000283e+02
-9.042472539799999822e+02
-9.151818574500000523e+02
-9.035906178300000420e+02
-8.866646735199999512e+02
-9.085180920799999740e+02
-8.851720584099999769e+02
-9.107711727299999893e+02
-8.889836730800000169e+02
-9.005851733800000147e+02
-8.943851586900000257e+02
-9.036547019399999954e+02
-9.074189993999999615e+02
-9.024266000799999574e+02
-8.955905113600000504e+02
-9.037438696499999651e+02
-9.061416508700000350e+02
-8.969543835900000204e+02
-9.007030051100000492e+02
-9.007447851099999525e+02
-8.978584745099999509e+02
-8.937402591200000188e+02
