1.062941901599999994e+01 0.000000000000000000e+00 0.000000000000000000e+00 -2.747676599999999969e-02 1.066236218799999946e+01 0.000000000000000000e+00 -2.826479200000000039e-02 1.865193399999999849e-02 1.108950252900000066e+01
1.040520163100000062e+01 0.000000000000000000e+00 0.000000000000000000e+00 -2.689718099999999917e-02 1.043744985100000022e+01 0.000000000000000000e+00 -2.766855099999999956e-02 1.825851499999999947e-02 1.085558001799999950e+01
1.032654699200000081e+01 0.000000000000000000e+00 0.000000000000000000e+00 -2.669385999999999981e-02 1.035855144299999964e+01 0.000000000000000000e+00 -2.745939999999999839e-02 1.812049599999999983e-02 1.077352089500000076e+01
1.034635268299999922e+01 0.000000000000000000e+00 0.000000000000000000e+00 -2.674504700000000096e-02 1.037841856400000040e+01 0.000000000000000000e+00 -2.751208700000000104e-02 1.815522400000000106e-02 1.079418396099999988e+01
1.033272119299999936e+01 0.000000000000000000e+00 0.000000000000000000e+00 -2.670981000000000050e-02 1.036474482700000088e+01 0.000000000000000000e+00 -2.747584000000000137e-02 1.813130400000000086e-02 1.077996244500000067e+01
1.040648842200000068e+01 0.000000000000000000e+00 0.000000000000000000e+00 -2.690050700000000058e-02 1.043874062999999985e+01 0.000000000000000000e+00 -2.767197199999999954e-02 1.826077300000000098e-02 1.085692250700000017e+01
1.058926930199999994e+01 0.000000000000000000e+00 0.000000000000000000e+00 -2.737298000000000162e-02 1.062208804099999959e+01 0.000000000000000000e+00 -2.815802900000000109e-02 1.858148100000000039e-02 1.104761497600000020e+01
1.048574902800000075e+01 0.000000000000000000e+00 0.000000000000000000e+00 -2.710539400000000140e-02 1.051824688399999985e+01 0.000000000000000000e+00 -2.788273499999999877e-02 1.839985499999999968e-02 1.093961382600000043e+01
1.024791746400000036e+01 0.000000000000000000e+00 0.000000000000000000e+00 -2.649060500000000040e-02 1.027967822199999937e+01 0.000000000000000000e+00 -2.725031500000000065e-02 1.798252100000000131e-02 1.069148796800000056e+01
1.031649883999999950e+01 0.000000000000000000e+00 0.000000000000000000e+00 -2.666787600000000008e-02 1.034847219599999946e+01 0.000000000000000000e+00 -2.743270299999999925e-02 1.810283799999999957e-02 1.076303792400000070e+01
1.053443801799999946e+01 0.000000000000000000e+00 0.000000000000000000e+00 2.472418200000000080e-02 1.060415298100000037e+01 0.000000000000000000e+00 -5.403065000000000298e-03 4.533881900000000242e-02 1.098437787599999993e+01
1.035728130200000052e+01 0.000000000000000000e+00 0.000000000000000000e+00 -2.677329700000000146e-02 1.038938105299999926e+01 0.000000000000000000e+00 -2.754114800000000141e-02 1.817440099999999975e-02 1.080558561299999987e+01
1.032842564499999938e+01 0.000000000000000000e+00 0.000000000000000000e+00 2.424067300000000078e-02 1.039677725600000002e+01 0.000000000000000000e+00 -5.297401999999999667e-03 4.445216899999999971e-02 1.076956644100000027e+01
1.036775849300000019e+01 0.000000000000000000e+00 0.000000000000000000e+00 -2.680038100000000159e-02 1.039989071499999973e+01 0.000000000000000000e+00 -2.756900799999999901e-02 1.819278599999999899e-02 1.081651629799999981e+01
1.005077583599999969e+01 0.000000000000000000e+00 0.000000000000000000e+00 -2.598099900000000115e-02 1.008192560500000035e+01 0.000000000000000000e+00 -2.672609399999999885e-02 1.763658699999999871e-02 1.048581326899999944e+01
1.014880906500000002e+01 0.000000000000000000e+00 0.000000000000000000e+00 -2.623441199999999862e-02 1.018026266300000060e+01 0.000000000000000000e+00 -2.698677500000000104e-02 1.780860999999999902e-02 1.058808976499999943e+01
1.029241906400000062e+01 0.000000000000000000e+00 0.000000000000000000e+00 -2.660564099999999932e-02 1.032431774400000002e+01 0.000000000000000000e+00 -2.736865000000000131e-02 1.806061000000000125e-02 1.073791577399999930e+01
1.064525141999999924e+01 0.000000000000000000e+00 0.000000000000000000e+00 2.498425900000000172e-02 1.071569972600000042e+01 0.000000000000000000e+00 -5.459900000000000170e-03 4.581574499999999800e-02 1.109992426600000037e+01
1.025152192700000064e+01 0.000000000000000000e+00 0.000000000000000000e+00 2.406018099999999993e-02 1.031936460300000036e+01 0.000000000000000000e+00 -5.257958000000000076e-03 4.412118599999999974e-02 1.068937806199999940e+01
1.044721266800000059e+01 0.000000000000000000e+00 0.000000000000000000e+00 -2.700576799999999944e-02 1.047959113799999997e+01 0.000000000000000000e+00 -2.778028499999999831e-02 1.833220799999999914e-02 1.089940956599999922e+01
1.047288645299999921e+01 0.000000000000000000e+00 0.000000000000000000e+00 -2.707214399999999938e-02 1.050534444500000042e+01 0.000000000000000000e+00 -2.784853199999999876e-02 1.837728500000000015e-02 1.092619450800000003e+01
1.047988754300000025e+01 0.000000000000000000e+00 0.000000000000000000e+00 -2.709024200000000049e-02 1.051236723300000087e+01 0.000000000000000000e+00 -2.786714900000000078e-02 1.838957000000000092e-02 1.093349863199999916e+01
1.107557174699999969e+01 0.000000000000000000e+00 0.000000000000000000e+00 -2.863007000000000052e-02 1.110989760500000045e+01 0.000000000000000000e+00 -2.945113699999999876e-02 1.943484599999999868e-02 1.155496641100000055e+01
1.040155886199999991e+01 0.000000000000000000e+00 0.000000000000000000e+00 -2.688776400000000150e-02 1.043379579199999974e+01 0.000000000000000000e+00 -2.765886399999999828e-02 1.825212299999999857e-02 1.085177957500000012e+01
1.052702694999999977e+01 0.000000000000000000e+00 0.000000000000000000e+00 -2.721209600000000159e-02 1.055965273600000032e+01 0.000000000000000000e+00 -2.799249700000000160e-02 1.847228799999999990e-02 1.098267841999999916e+01
1.033444421099999921e+01 0.000000000000000000e+00 0.000000000000000000e+00 2.425479900000000050e-02 1.040283565200000027e+01 0.000000000000000000e+00 -5.300489000000000242e-03 4.447807200000000044e-02 1.077584206799999933e+01
1.033930596499999943e+01 0.000000000000000000e+00 0.000000000000000000e+00 2.426620900000000039e-02 1.040772957999999981e+01 0.000000000000000000e+00 -5.302982000000000355e-03 4.449899699999999847e-02 1.078091147399999983e+01
1.037427355800000051e+01 0.000000000000000000e+00 0.000000000000000000e+00 -2.681723199999999988e-02 1.040642592400000055e+01 0.000000000000000000e+00 -2.758630999999999930e-02 1.820424400000000137e-02 1.082331325500000041e+01
1.032579954300000047e+01 0.000000000000000000e+00 0.000000000000000000e+00 -2.669191799999999851e-02 1.035780172499999985e+01 0.000000000000000000e+00 -2.745743399999999931e-02 1.811915899999999927e-02 1.077274119900000038e+01
1.015985091099999948e+01 0.000000000000000000e+00 0.000000000000000000e+00 2.384503099999999917e-02 1.022708692600000013e+01 0.000000000000000000e+00 -5.210941000000000184e-03 4.372664600000000096e-02 1.059379165500000042e+01
1.041300722699999959e+01 0.000000000000000000e+00 0.000000000000000000e+00 -2.691734700000000119e-02 1.044527968699999931e+01 0.000000000000000000e+00 -2.768932899999999864e-02 1.827218599999999929e-02 1.086372357900000019e+01
1.036701846200000077e+01 0.000000000000000000e+00 0.000000000000000000e+00 -2.679846799999999890e-02 1.039914839100000066e+01 0.000000000000000000e+00 -2.756704000000000099e-02 1.819148699999999924e-02 1.081574423600000046e+01
1.037517688199999988e+01 0.000000000000000000e+00 0.000000000000000000e+00 -2.681955700000000081e-02 1.040733209599999931e+01 0.000000000000000000e+00 -2.758873400000000017e-02 1.820580299999999957e-02 1.082425578600000016e+01
1.013822754699999962e+01 0.000000000000000000e+00 0.000000000000000000e+00 -2.620706000000000077e-02 1.016964835099999931e+01 0.000000000000000000e+00 -2.695863800000000005e-02 1.779004199999999897e-02 1.057705023699999991e+01
1.053038753400000083e+01 0.000000000000000000e+00 0.000000000000000000e+00 -2.722078299999999840e-02 1.056302373599999989e+01 0.000000000000000000e+00 -2.800143399999999866e-02 1.847818500000000114e-02 1.098618446400000082e+01
1.031618364100000029e+01 0.000000000000000000e+00 0.000000000000000000e+00 -2.666707100000000052e-02 1.034815597300000078e+01 0.000000000000000000e+00 -2.743184200000000142e-02 1.810231099999999940e-02 1.076270897600000076e+01
1.041726830800000059e+01 0.000000000000000000e+00 0.000000000000000000e+00 -2.692836200000000083e-02 1.044955397400000052e+01 0.000000000000000000e+00 -2.770065999999999848e-02 1.827966300000000155e-02 1.086816909600000081e+01
1.053193596300000046e+01 0.000000000000000000e+00 0.000000000000000000e+00 -2.722478600000000082e-02 1.056457696300000038e+01 0.000000000000000000e+00 -2.800555100000000006e-02 1.848090200000000044e-02 1.098779991400000000e+01
1.034726915000000069e+01 0.000000000000000000e+00 0.000000000000000000e+00 2.428489899999999868e-02 1.041574546400000045e+01 0.000000000000000000e+00 -5.307067000000000381e-03 4.453326900000000033e-02 1.078921477599999967e+01
1.051431598699999981e+01 0.000000000000000000e+00 0.000000000000000000e+00 -2.717923900000000087e-02 1.054690237900000049e+01 0.000000000000000000e+00 -2.795869800000000058e-02 1.844998299999999966e-02 1.096941727599999972e+01
1.016630404900000073e+01 0.000000000000000000e+00 0.000000000000000000e+00 2.386017600000000030e-02 1.023358276999999994e+01 0.000000000000000000e+00 -5.214250999999999608e-03 4.375441900000000273e-02 1.060052041600000017e+01
1.059945973900000027e+01 0.000000000000000000e+00 0.000000000000000000e+00 2.487678700000000090e-02 1.066960500399999923e+01 0.000000000000000000e+00 -5.436413999999999656e-03 4.561866400000000321e-02 1.105217676100000013e+01
1.090543639800000086e+01 0.000000000000000000e+00 0.000000000000000000e+00 -2.819027500000000075e-02 1.093923496500000070e+01 0.000000000000000000e+00 -2.899872900000000087e-02 1.913630100000000139e-02 1.137746692900000056e+01
1.027748583600000032e+01 0.000000000000000000e+00 0.000000000000000000e+00 -2.656703900000000063e-02 1.030933823400000016e+01 0.000000000000000000e+00 -2.732894099999999896e-02 1.803440599999999935e-02 1.072233617700000075e+01
1.038601828900000079e+01 0.000000000000000000e+00 0.000000000000000000e+00 -2.684759199999999998e-02 1.041820705499999988e+01 0.000000000000000000e+00 -2.761753999999999945e-02 1.822485299999999919e-02 1.083556634500000015e+01
1.080078528099999957e+01 0.000000000000000000e+00 0.000000000000000000e+00 -2.791975400000000149e-02 1.083425951000000076e+01 0.000000000000000000e+00 -2.872045000000000153e-02 1.895266500000000048e-02 1.126828609700000072e+01
1.054940935900000021e+01 0.000000000000000000e+00 0.000000000000000000e+00 -2.726995399999999903e-02 1.058210451300000088e+01 0.000000000000000000e+00 -2.805201499999999959e-02 1.851156300000000171e-02 1.100602962800000029e+01
1.029640494599999911e+01 0.000000000000000000e+00 0.000000000000000000e+00 -2.661594399999999902e-02 1.032831597899999920e+01 0.000000000000000000e+00 -2.737924900000000134e-02 1.806760400000000100e-02 1.074207417999999947e+01
1.039209682899999976e+01 0.000000000000000000e+00 0.000000000000000000e+00 2.439010900000000009e-02 1.046086980499999974e+01 0.000000000000000000e+00 -5.330058999999999839e-03 4.472620100000000015e-02 1.083595710600000039e+01
1.036229940199999966e+01 0.000000000000000000e+00 0.000000000000000000e+00 2.432017499999999943e-02 1.043087518299999950e+01 0.000000000000000000e+00 -5.314776000000000222e-03 4.459795700000000057e-02 1.080488698999999997e+01
1.066748195999999993e+01 0.000000000000000000e+00 0.000000000000000000e+00 -2.757516900000000007e-02 1.070054305000000028e+01 0.000000000000000000e+00 -2.836598200000000139e-02 1.871875099999999875e-02 1.112921288000000075e+01
1.031427261600000023e+01 0.000000000000000000e+00 0.000000000000000000e+00 -2.666212100000000043e-02 1.034623907299999956e+01 0.000000000000000000e+00 -2.742678299999999972e-02 1.809893200000000160e-02 1.076071534099999916e+01
1.071797556099999937e+01 0.000000000000000000e+00 0.000000000000000000e+00 -2.770569299999999999e-02 1.075119314300000006e+01 0.000000000000000000e+00 -2.850025000000000128e-02 1.880735500000000129e-02 1.118189204399999959e+01
1.043222900900000027e+01 0.000000000000000000e+00 0.000000000000000000e+00 -2.696703500000000031e-02 1.046456104199999970e+01 0.000000000000000000e+00 -2.774044200000000057e-02 1.830591499999999899e-02 1.088377735499999943e+01
1.035770685199999974e+01 0.000000000000000000e+00 0.000000000000000000e+00 -2.677440799999999954e-02 1.038980787400000061e+01 0.000000000000000000e+00 -2.754225700000000054e-02 1.817517299999999933e-02 1.080602947699999916e+01
1.035504727500000044e+01 0.000000000000000000e+00 0.000000000000000000e+00 -2.676752300000000140e-02 1.038714010200000004e+01 0.000000000000000000e+00 -2.753520699999999904e-02 1.817048099999999874e-02 1.080325488899999975e+01
1.040557243399999976e+01 0.000000000000000000e+00 0.000000000000000000e+00 2.442173599999999944e-02 1.047443458899999946e+01 0.000000000000000000e+00 -5.336969999999999908e-03 4.478419899999999676e-02 1.085000827200000018e+01
1.019874650400000071e+01 0.000000000000000000e+00 0.000000000000000000e+00 -2.636348900000000037e-02 1.023035491799999974e+01 0.000000000000000000e+00 -2.711958600000000108e-02 1.789621300000000109e-02 1.064018880000000067e+01
1.045449050699999916e+01 0.000000000000000000e+00 0.000000000000000000e+00 2.453654599999999936e-02 1.052367639200000049e+01 0.000000000000000000e+00 -5.362060000000000090e-03 4.499473600000000045e-02 1.090101570100000039e+01
1.050212365400000003e+01 0.000000000000000000e+00 0.000000000000000000e+00 -2.714772199999999913e-02 1.053467225800000051e+01 0.000000000000000000e+00 -2.792627699999999935e-02 1.842858899999999869e-02 1.095669720999999974e+01
1.038674774499999920e+01 0.000000000000000000e+00 0.000000000000000000e+00 -2.684947799999999954e-02 1.041893877200000063e+01 0.000000000000000000e+00 -2.761947999999999834e-02 1.822613299999999853e-02 1.083632737399999968e+01
1.053868508000000048e+01 0.000000000000000000e+00 0.000000000000000000e+00 -2.724222100000000049e-02 1.057134704599999964e+01 0.000000000000000000e+00 -2.802351999999999968e-02 1.849271900000000121e-02 1.099484126800000006e+01
1.038714324799999922e+01 0.000000000000000000e+00 0.000000000000000000e+00 -2.685049000000000116e-02 1.041933554899999947e+01 0.000000000000000000e+00 -2.762055399999999855e-02 1.822680100000000081e-02 1.083674010300000035e+01
1.028939233600000058e+01 0.000000000000000000e+00 0.000000000000000000e+00 2.414906299999999839e-02 1.035748563199999950e+01 0.000000000000000000e+00 -5.277381999999999733e-03 4.428417500000000201e-02 1.072886596700000084e+01
1.071408067299999978e+01 0.000000000000000000e+00 0.000000000000000000e+00 -2.769562500000000149e-02 1.074728618400000002e+01 0.000000000000000000e+00 -2.848989299999999877e-02 1.880052000000000112e-02 1.117782857000000085e+01
1.052829790100000018e+01 0.000000000000000000e+00 0.000000000000000000e+00 2.470977099999999843e-02 1.059797222999999988e+01 0.000000000000000000e+00 -5.399916000000000264e-03 4.531239299999999942e-02 1.097797550700000002e+01
1.041604246099999997e+01 0.000000000000000000e+00 0.000000000000000000e+00 -2.692520400000000119e-02 1.044832427899999949e+01 0.000000000000000000e+00 -2.769737800000000166e-02 1.827753799999999942e-02 1.086689008199999940e+01
1.040610878999999933e+01 0.000000000000000000e+00 0.000000000000000000e+00 -2.689951499999999884e-02 1.043835986899999924e+01 0.000000000000000000e+00 -2.767098499999999864e-02 1.826008100000000092e-02 1.085652654899999980e+01
1.034501942700000043e+01 0.000000000000000000e+00 0.000000000000000000e+00 -2.674161099999999847e-02 1.037708112800000038e+01 0.000000000000000000e+00 -2.750852000000000158e-02 1.815291000000000127e-02 1.079279288899999933e+01
1.017080408500000033e+01 0.000000000000000000e+00 0.000000000000000000e+00 -2.629125900000000085e-02 1.020232589799999978e+01 0.000000000000000000e+00 -2.704528399999999930e-02 1.784718100000000016e-02 1.061103692200000026e+01
1.004240343600000074e+01 0.000000000000000000e+00 0.000000000000000000e+00 -2.595935699999999888e-02 1.007352725700000029e+01 0.000000000000000000e+00 -2.670383100000000079e-02 1.762189499999999853e-02 1.047707847799999925e+01
1.010352095000000006e+01 0.000000000000000000e+00 0.000000000000000000e+00 2.371282499999999988e-02 1.017038418399999955e+01 0.000000000000000000e+00 -5.182049000000000204e-03 4.348420900000000283e-02 1.053505576699999935e+01
1.031828058299999995e+01 0.000000000000000000e+00 0.000000000000000000e+00 -2.667248200000000083e-02 1.035025946200000035e+01 0.000000000000000000e+00 -2.743744000000000044e-02 1.810596500000000164e-02 1.076489678899999980e+01
1.035158040099999965e+01 0.000000000000000000e+00 0.000000000000000000e+00 -2.675856100000000015e-02 1.038366248300000017e+01 0.000000000000000000e+00 -2.752598800000000123e-02 1.816439799999999827e-02 1.079963795399999960e+01
1.033695502399999988e+01 0.000000000000000000e+00 0.000000000000000000e+00 -2.672075499999999881e-02 1.036899177899999991e+01 0.000000000000000000e+00 -2.748709800000000147e-02 1.813873400000000011e-02 1.078437953299999918e+01
1.039180832299999935e+01 0.000000000000000000e+00 0.000000000000000000e+00 2.438943199999999908e-02 1.046057938999999948e+01 0.000000000000000000e+00 -5.329910999999999677e-03 4.472496000000000110e-02 1.083565627800000009e+01
1.040787483100000088e+01 0.000000000000000000e+00 0.000000000000000000e+00 2.442713999999999996e-02 1.047675222300000009e+01 0.000000000000000000e+00 -5.338151000000000181e-03 4.479410799999999915e-02 1.085240900800000041e+01
1.050027432299999930e+01 0.000000000000000000e+00 0.000000000000000000e+00 2.464399999999999924e-02 1.056976319800000041e+01 0.000000000000000000e+00 -5.385542000000000107e-03 4.519178299999999926e-02 1.094875500500000065e+01
1.035839484299999924e+01 0.000000000000000000e+00 0.000000000000000000e+00 -2.677618600000000043e-02 1.039049799800000073e+01 0.000000000000000000e+00 -2.754408599999999888e-02 1.817638099999999840e-02 1.080674724600000047e+01
1.057526969699999952e+01 0.000000000000000000e+00 0.000000000000000000e+00 -2.733680200000000032e-02 1.060804499900000053e+01 0.000000000000000000e+00 -2.812078000000000147e-02 1.855694199999999988e-02 1.103300930400000013e+01
1.048055068999999939e+01 0.000000000000000000e+00 0.000000000000000000e+00 -2.709195600000000037e-02 1.051303243499999951e+01 0.000000000000000000e+00 -2.786891199999999916e-02 1.839073399999999886e-02 1.093419048300000007e+01
1.054832569899999939e+01 0.000000000000000000e+00 0.000000000000000000e+00 -2.726714200000000116e-02 1.058101754299999975e+01 0.000000000000000000e+00 -2.804915599999999870e-02 1.850963599999999945e-02 1.100489917099999992e+01
1.022888414600000040e+01 0.000000000000000000e+00 0.000000000000000000e+00 -2.644140500000000116e-02 1.026058591600000014e+01 0.000000000000000000e+00 -2.719970400000000163e-02 1.794912200000000138e-02 1.067163081300000016e+01
1.028649808099999952e+01 0.000000000000000000e+00 0.000000000000000000e+00 -2.659032500000000146e-02 1.031837845699999967e+01 0.000000000000000000e+00 -2.735292699999999910e-02 1.805019500000000152e-02 1.073173861299999921e+01
1.019141690300000036e+01 0.000000000000000000e+00 0.000000000000000000e+00 -2.634454199999999857e-02 1.022300259900000086e+01 0.000000000000000000e+00 -2.710009600000000060e-02 1.788335099999999872e-02 1.063254194299999966e+01
1.043042407599999954e+01 0.000000000000000000e+00 0.000000000000000000e+00 2.448006200000000035e-02 1.049945069400000008e+01 0.000000000000000000e+00 -5.349716000000000020e-03 4.489115700000000098e-02 1.087592135999999954e+01
1.057658406800000073e+01 0.000000000000000000e+00 0.000000000000000000e+00 -2.734019999999999853e-02 1.060936344299999945e+01 0.000000000000000000e+00 -2.812427500000000066e-02 1.855924800000000041e-02 1.103438056599999939e+01
1.033696276100000055e+01 0.000000000000000000e+00 0.000000000000000000e+00 -2.672077499999999869e-02 1.036899954000000079e+01 0.000000000000000000e+00 -2.748711800000000136e-02 1.813874700000000020e-02 1.078438760499999916e+01
1.014383448799999954e+01 0.000000000000000000e+00 0.000000000000000000e+00 -2.622154299999999993e-02 1.017527271600000027e+01 0.000000000000000000e+00 -2.697356899999999932e-02 1.779985599999999932e-02 1.058289997299999996e+01
1.048170236500000030e+01 0.000000000000000000e+00 0.000000000000000000e+00 -2.709493300000000160e-02 1.051418767900000084e+01 0.000000000000000000e+00 -2.787197400000000075e-02 1.839275400000000074e-02 1.093539200700000080e+01
1.033552195500000082e+01 0.000000000000000000e+00 0.000000000000000000e+00 2.425732800000000161e-02 1.040392052800000044e+01 0.000000000000000000e+00 -5.301041999999999733e-03 4.448271100000000117e-02 1.077696584299999927e+01
1.054231472100000033e+01 0.000000000000000000e+00 0.000000000000000000e+00 -2.725160399999999872e-02 1.057498793599999942e+01 0.000000000000000000e+00 -2.803317199999999856e-02 1.849908800000000034e-02 1.099862801399999945e+01
1.036696995600000015e+01 0.000000000000000000e+00 0.000000000000000000e+00 2.433113599999999974e-02 1.043557664699999954e+01 0.000000000000000000e+00 -5.317170999999999877e-03 4.461805900000000158e-02 1.080975703100000018e+01
1.036254077699999954e+01 0.000000000000000000e+00 0.000000000000000000e+00 2.432074099999999989e-02 1.043111815600000014e+01 0.000000000000000000e+00 -5.314898999999999665e-03 4.459899600000000186e-02 1.080513867500000025e+01
1.044649418600000068e+01 0.000000000000000000e+00 0.000000000000000000e+00 -2.700390999999999903e-02 1.047887043000000062e+01 0.000000000000000000e+00 -2.777837500000000098e-02 1.833094700000000021e-02 1.089865998600000019e+01
1.009861367599999937e+01 0.000000000000000000e+00 0.000000000000000000e+00 2.370130800000000079e-02 1.016544443399999942e+01 0.000000000000000000e+00 -5.179531999999999713e-03 4.346308900000000336e-02 1.052993889600000088e+01
1.059160891800000037e+01 0.000000000000000000e+00 0.000000000000000000e+00 2.485836099999999896e-02 1.066170222699999925e+01 0.000000000000000000e+00 -5.432387000000000327e-03 4.558487499999999693e-02 1.104399062100000073e+01
1.027471457300000068e+01 0.000000000000000000e+00 0.000000000000000000e+00 -2.655987500000000015e-02 1.030655838200000041e+01 0.000000000000000000e+00 -2.732157199999999883e-02 1.802954299999999857e-02 1.071944496200000074e+01
1.031002532399999971e+01 0.000000000000000000e+00 0.000000000000000000e+00 -2.665114199999999919e-02 1.034197861700000054e+01 0.000000000000000000e+00 -2.741548900000000122e-02 1.809147900000000059e-02 1.075628420900000037e+01
1.033207676099999972e+01 0.000000000000000000e+00 0.000000000000000000e+00 2.424924200000000071e-02 1.040045253499999944e+01 0.000000000000000000e+00 -5.299274999999999992e-03 4.446788299999999972e-02 1.077337349999999994e+01
