2.873619999999999841e+00 7.187500000000000000e-01 2.667949999999999822e+00 2.612690000000000179e+00 1.009627000000000052e+01 8.067750000000000199e+00 3.102339999999999876e+00 5.200149999999999828e+00 1.947380000000000111e+00 2.754189999999999916e+00 5.656520000000000437e+00 8.417310000000000514e+00 1.052453000000000038e+01 2.765719999999999956e+00 3.037790000000000212e+00 1.031653000000000020e+01 2.303119999999999834e+00 8.196469999999999700e+00 1.059003000000000050e+01 8.151450000000000529e+00 2.491870000000000029e+00 -5.130000000000000011e-03 7.993400000000000283e+00 8.096730000000000871e+00 8.225179999999999936e+00 2.619709999999999983e+00 5.709990000000000343e+00 8.493750000000000355e+00 2.661810000000000009e+00 3.398399999999999754e-01 8.158820000000000405e+00 8.061709999999999710e+00 5.581760000000000055e+00 8.429349999999999454e+00 7.981189999999999785e+00 1.061313999999999957e+01 5.558639999999999581e+00 3.919699999999999851e-01 2.775199999999999889e-01 5.104529999999999568e+00 1.063176999999999950e+01 5.746150000000000091e+00 5.855640000000000178e+00 5.823070000000000412e+00 1.102354000000000056e+01 4.856180000000000163e+00 5.428700000000000081e+00 5.203899999999999970e+00 5.826609999999999623e+00 3.245410000000000128e+00 2.758010000000000073e+00 4.953350000000000364e+00 2.586419999999999941e+00 7.897750000000000270e+00 5.313250000000000028e+00 8.451090000000000657e+00 2.401899999999999924e+00 5.431589999999999918e+00 7.648100000000000342e+00 7.861600000000000144e+00 7.833770000000000344e+00 3.463300000000000267e-01 3.178859999999999797e+00 7.482770000000000366e+00 1.039086999999999961e+01 8.714620000000000033e+00 8.023179999999999978e+00 5.803689999999999571e+00 2.793079999999999785e+00 8.261139999999999262e+00 5.217170000000000307e+00 8.644019999999999371e+00 3.295199999999999796e-01 1.170599999999999974e-01 1.083604000000000056e+01 1.153600000000000042e-01 2.894200000000000106e-01 5.569639999999999702e+00 5.573500000000000121e-01 5.193780000000000285e+00 2.728400000000000269e-01 1.053772999999999982e+01 5.715290000000000425e+00 5.637710000000000221e+00 2.801359999999999850e+00 2.723079999999999945e+00 5.171890000000000320e+00 3.072599999999999998e+00 2.653630000000000155e+00 1.053804000000000052e+01 2.731980000000000075e+00 7.761160000000000281e+00 5.437420000000000364e+00 2.733509999999999884e+00 8.182499999999999218e+00 2.689099999999999824e-01 1.015831000000000017e+01 4.084179999999999922e+00 1.480040000000000022e+00 8.664699999999999847e+00 4.086789999999999701e+00 6.791299999999999670e+00 9.593489999999999185e+00 9.309160000000000323e+00 4.254200000000000204e-01 9.911310000000000286e+00 9.099050000000000082e+00 6.056320000000000370e+00 3.601269999999999971e+00 9.695500000000000229e-01 4.507819999999999716e+00 4.051169999999999938e+00 1.349669999999999925e+00 9.682610000000000383e+00 3.365660000000000096e+00 6.403019999999999712e+00 4.142360000000000042e+00 4.517689999999999984e+00 5.947969999999999757e+00 9.346890000000000143e+00 3.986450000000000049e+00 3.960630000000000095e+00 3.809689999999999799e+00 3.616680000000000117e+00 3.649550000000000072e+00 8.769489999999999341e+00 4.169299999999999784e+00 9.455949999999999633e+00 1.054840000000000000e+00 4.294410000000000061e+00 9.170889999999999986e+00 8.579980000000000828e+00 9.358539999999999637e+00 1.641669999999999963e+00 1.887259999999999938e+00 9.180740000000000123e+00 1.678099999999999925e+00 6.812730000000000175e+00 9.614219999999999544e+00 6.533619999999999983e+00 1.763929999999999998e+00 9.281269999999999243e+00 6.877220000000000333e+00 7.523109999999999964e+00 9.093780000000000641e+00 3.694189999999999863e+00 4.038199999999999790e+00 9.548439999999999372e+00 3.803809999999999913e+00 9.770949999999999136e+00 8.908440000000000580e+00 9.515610000000000568e+00 3.284130000000000216e+00 9.030950000000000699e+00 9.034349999999999881e+00 9.026759999999999451e+00 4.579340000000000188e+00 1.547299999999999898e+00 1.669219999999999926e+00 4.548709999999999809e+00 8.764950000000000685e+00 6.103970000000000340e+00 4.078649999999999665e+00 6.923070000000000057e+00 1.203019999999999978e+00 3.866029999999999855e+00 6.704180000000000028e+00 6.702960000000000029e+00 1.256000000000000005e+00 1.367709999999999981e+00 3.460220000000000073e+00 7.963400000000000478e-01 1.389170000000000016e+00 9.170210000000000861e+00 9.002000000000000002e-01 6.983360000000000234e+00 4.615289999999999893e+00 1.422630000000000061e+00 7.040799999999999947e+00 9.745469999999999189e+00 6.790650000000000297e+00 1.819369999999999932e+00 7.043300000000000116e-01 3.988690000000000069e+00 7.224099999999999966e-01 7.225299999999999834e+00 7.293730000000000047e+00 6.643559999999999910e+00 9.093700000000000117e-01 6.594999999999999751e+00 6.861410000000000231e+00 6.343619999999999592e+00 6.088309999999999889e+00 1.500329999999999941e+00 3.629220000000000113e+00 6.301339999999999719e+00 1.046969999999999956e+00 8.581830000000000069e+00 6.664950000000000152e+00 7.178619999999999557e+00 3.479979999999999851e+00 6.746780000000000221e+00 6.981040000000000134e+00 9.424039999999999750e+00 7.532879999999999576e+00 3.974969999999999892e+00 1.576049999999999951e+00 6.375630000000000130e+00 2.243290000000000006e+00 6.517529999999999824e+00 6.408680000000000376e+00 1.020121999999999929e+01 1.986669999999999936e+00 6.625029999999999752e+00 9.388619999999999521e+00 7.146379999999999733e+00 9.454869999999999663e+00 1.236299999999999955e+00 4.628840000000000288e+00 8.885630000000000805e+00 1.217340000000000089e+00 9.538859999999999673e+00 9.255169999999999675e+00 6.537630000000000052e+00 4.666430000000000078e+00 9.633390000000000342e+00 6.331520000000000259e+00 9.954660000000000508e+00 6.707110000000000127e+00 4.557010000000000005e+00 4.065229999999999677e+00 6.819930000000000270e+00 4.586509999999999643e+00 9.733150000000000190e+00 6.440540000000000376e+00 9.761049999999999116e+00 4.523550000000000182e+00 6.806510000000000282e+00 9.707100000000000506e+00 1.075694000000000017e+01 2.277590000000000003e+00 9.516799999999999704e-01 7.266700000000000381e-01 1.673669999999999991e+00 9.838620000000000587e+00 5.759490000000000443e+00 1.425010000000000110e+00 6.220519999999999605e+00 1.632179999999999964e+00 1.176160000000000094e+00 6.093320000000000292e+00 7.117029999999999745e+00 1.110780000000000101e+00 4.226919999999999789e+00 4.358500000000000263e+00 1.770850000000000035e+00 4.378309999999999924e+00 9.955260000000000886e+00 3.508379999999999832e+00 8.849560000000000315e+00 3.141989999999999839e+00 1.687959999999999905e+00 1.007757999999999932e+01 1.009618000000000038e+01 2.094289999999999985e+00 3.805149999999999810e+00 1.157780000000000031e+00 1.383820000000000050e+00 2.129290000000000127e+00 6.540140000000000065e+00 1.421990000000000087e+00 9.044779999999999376e+00 1.391189999999999927e+00 2.171549999999999869e+00 8.090870000000000672e+00 7.638279999999999959e+00 4.678670000000000329e+00 4.189390000000000391e+00 9.383200000000000429e-01 4.019120000000000026e+00 3.711399999999999810e+00 6.345340000000000202e+00
2.821569999999999911e+00 2.196599999999999941e-01 1.917340000000000044e+00 2.938649999999999984e+00 1.030400000000000066e-01 7.432839999999999669e+00 2.974479999999999791e+00 5.423849999999999838e+00 3.169810000000000016e+00 3.081949999999999967e+00 5.254139999999999588e+00 8.285569999999999879e+00 1.791600000000000137e-01 2.357520000000000060e+00 1.990739999999999954e+00 1.833400000000000030e-01 2.705999999999999961e+00 7.814750000000000085e+00 2.781699999999999728e-01 8.004519999999999413e+00 3.337839999999999918e+00 3.111099999999999977e-01 7.660549999999999748e+00 8.569990000000000663e+00 7.646639999999999660e+00 2.486190000000000122e+00 4.874089999999999812e+00 7.722979999999999734e+00 2.598240000000000105e+00 1.044968000000000075e+01 7.880419999999999980e+00 7.738769999999999705e+00 5.802839999999999776e+00 7.735400000000000276e+00 7.773620000000000196e+00 9.174999999999999822e-02 5.194569999999999688e+00 8.751000000000000445e-02 1.037097999999999942e+01 5.150649999999999729e+00 2.044499999999999929e-01 4.764739999999999753e+00 5.012010000000000076e+00 5.630510000000000126e+00 3.765000000000000013e-01 5.194079999999999586e+00 5.304990000000000094e+00 5.776370000000000005e+00 5.323909999999999698e+00 2.629550000000000054e+00 2.187129999999999797e+00 5.614700000000000024e+00 2.518949999999999800e+00 7.926429999999999865e+00 5.307509999999999728e+00 7.786469999999999558e+00 2.983719999999999928e+00 5.631859999999999644e+00 7.810010000000000119e+00 8.514250000000000540e+00 8.080700000000000216e+00 7.470999999999999863e-02 2.291889999999999983e+00 8.128339999999999677e+00 2.877600000000000158e-01 7.377580000000000027e+00 7.991880000000000095e+00 5.196830000000000283e+00 3.236310000000000020e+00 8.163339999999999819e+00 5.298969999999999736e+00 8.357169999999999987e+00 1.013132000000000055e+01 1.044222000000000072e+01 1.027908000000000044e+01 1.029423000000000066e+01 5.733899999999999553e-01 4.899219999999999686e+00 1.023922999999999917e+01 5.420670000000000321e+00 8.465399999999999592e-01 1.027182999999999957e+01 5.097220000000000084e+00 5.855620000000000047e+00 2.661249999999999893e+00 2.544960000000000111e+00 4.824489999999999945e+00 2.449650000000000105e+00 2.673770000000000202e+00 1.031817999999999991e+01 2.598320000000000185e+00 7.848469999999999835e+00 5.915740000000000443e+00 2.336559999999999970e+00 7.710440000000000182e+00 5.757600000000000495e-01 9.406629999999999825e+00 4.047740000000000116e+00 2.065650000000000208e+00 9.396449999999999747e+00 4.330669999999999575e+00 7.375869999999999926e+00 8.774369999999999337e+00 9.646229999999999194e+00 5.461599999999999788e-01 8.784729999999999706e+00 9.540050000000000807e+00 5.756269999999999776e+00 4.576850000000000307e+00 2.011940000000000062e+00 3.808429999999999982e+00 4.205949999999999633e+00 2.052700000000000191e+00 9.394650000000000389e+00 4.040269999999999584e+00 6.722470000000000390e+00 4.224000000000000199e+00 4.132509999999999906e+00 6.570879999999999832e+00 9.789580000000000837e+00 3.474610000000000198e+00 4.169200000000000017e+00 4.735009999999999941e+00 3.233070000000000110e+00 4.394790000000000418e+00 1.021537999999999968e+01 4.278559999999999697e+00 9.665509999999999380e+00 3.022149999999999892e+00 3.429870000000000196e+00 9.528290000000000148e+00 5.909430000000000405e+00 8.875000000000000000e+00 1.733190000000000008e+00 1.111709999999999976e+00 9.190220000000000056e+00 1.763379999999999947e+00 6.325849999999999973e+00 9.071609999999999729e+00 6.768799999999999706e+00 1.517320000000000002e+00 9.237149999999999750e+00 6.710960000000000036e+00 6.859359999999999680e+00 9.032439999999999358e+00 4.220299999999999940e+00 4.591450000000000031e+00 8.951919999999999433e+00 4.368140000000000356e+00 1.005490999999999957e+01 9.739620000000000388e+00 9.657170000000000698e+00 3.377769999999999939e+00 9.473779999999999646e+00 9.547489999999999810e+00 8.726139999999999119e+00 3.594409999999999883e+00 9.604409999999999670e+00 2.393899999999999917e-01 4.053670000000000329e+00 1.555620000000000003e+00 6.493999999999999773e+00 4.444219999999999615e+00 9.426040000000000418e+00 8.628989999999999938e+00 3.880660000000000220e+00 6.926980000000000359e+00 7.229359999999999786e+00 1.761640000000000095e+00 1.067430000000000101e+00 3.526139999999999830e+00 1.436169999999999947e+00 1.111099999999999977e+00 9.082349999999999923e+00 1.124640000000000084e+00 6.090530000000000221e+00 4.081150000000000055e+00 1.198409999999999975e+00 6.428289999999999615e+00 1.011583000000000077e+01 6.595889999999999809e+00 1.006999999999999895e+00 9.359499999999999487e-01 6.555130000000000123e+00 1.344470000000000054e+00 6.646060000000000301e+00 6.479879999999999640e+00 6.423720000000000319e+00 1.568109999999999893e+00 6.446679999999999744e+00 6.488059999999999938e+00 7.175500000000000433e+00 6.826240000000000308e+00 1.025549999999999962e+00 3.689049999999999940e+00 6.843149999999999622e+00 1.124300000000000077e+00 9.268679999999999808e+00 6.439099999999999824e+00 6.010900000000000354e+00 4.442910000000000359e+00 6.869340000000000224e+00 6.414780000000000371e+00 9.664970000000000283e+00 6.016560000000000130e+00 3.657350000000000101e+00 2.564400000000000013e-01 6.314090000000000202e+00 3.743170000000000108e+00 5.785820000000000185e+00 6.858229999999999826e+00 8.902789999999999537e+00 2.495610000000000106e+00 7.034279999999999866e+00 8.940530000000000754e+00 7.527420000000000222e+00 9.266249999999999432e+00 1.649880000000000013e+00 3.565360000000000085e+00 9.491479999999999251e+00 1.517649999999999944e+00 8.885529999999999262e+00 8.935779999999999390e+00 6.769250000000000433e+00 4.235400000000000276e+00 9.018440000000000012e+00 7.131059999999999732e+00 9.332710000000000505e+00 6.953409999999999869e+00 3.435939999999999994e+00 3.075140000000000207e+00 7.096969999999999779e+00 3.600039999999999907e+00 8.611430000000000362e+00 6.069930000000000270e+00 8.854419999999999291e+00 4.992670000000000385e+00 6.232719999999999594e+00 8.887900000000000134e+00 1.034778000000000020e+01 9.375099999999999545e-01 5.326600000000000223e-01 1.172579999999999956e+00 1.123250000000000082e+00 1.252899999999999903e+00 6.301389999999999603e+00 1.884319999999999995e+00 8.823330000000000339e+00 2.390699999999999825e+00 1.354989999999999917e+00 6.048919999999999852e+00 7.297010000000000218e+00 1.796510000000000051e+00 3.531019999999999825e+00 3.094370000000000065e+00 2.330970000000000208e+00 3.246440000000000214e+00 8.183899999999999508e+00 1.003989999999999938e+00 8.594720000000000582e+00 5.205479999999999663e+00 9.878099999999999659e-01 8.801009999999999778e+00 1.029227999999999987e+01 7.929699999999999527e-01 3.294080000000000119e+00 3.607799999999999896e-01 1.035490000000000022e+00 3.572979999999999823e+00 5.748969999999999914e+00 3.898730000000000029e+00 7.165630000000000166e+00 1.537849999999999939e+00 2.120130000000000070e+00 8.692249999999999588e+00 7.629170000000000229e+00 4.476799999999999891e+00 4.560139999999999638e+00 2.459919999999999884e+00 4.793759999999999799e+00 4.423910000000000231e+00 7.647280000000000300e+00
2.347679999999999989e+00 1.007881000000000071e+01 2.953770000000000007e+00 2.812079999999999913e+00 1.524399999999999922e-01 8.354820000000000135e+00 2.641210000000000058e+00 5.299780000000000157e+00 2.598110000000000142e+00 2.715609999999999857e+00 5.068780000000000285e+00 8.380850000000000577e+00 1.014959999999999951e+01 2.585280000000000022e+00 2.663710000000000022e+00 2.016799999999999982e-01 2.929629999999999956e+00 8.006109999999999616e+00 3.153999999999999859e-02 7.504769999999999719e+00 2.801079999999999792e+00 2.704799999999999982e-01 7.597800000000000331e+00 8.220919999999999561e+00 8.006520000000000081e+00 2.860819999999999919e+00 5.372410000000000352e+00 8.174269999999999925e+00 2.781569999999999876e+00 1.054214999999999947e+01 7.826389999999999958e+00 7.739609999999999879e+00 5.446930000000000049e+00 7.933989999999999654e+00 7.901819999999999844e+00 5.093000000000000305e-02 5.560579999999999856e+00 2.958100000000000174e-01 1.002408999999999928e+01 5.282659999999999911e+00 2.504500000000000060e-01 5.435850000000000293e+00 5.235490000000000421e+00 5.079379999999999562e+00 9.760000000000000620e-02 5.338879999999999626e+00 5.204240000000000421e+00 5.244839999999999947e+00 5.324309999999999654e+00 2.268429999999999946e+00 2.510400000000000187e+00 5.541179999999999772e+00 2.870969999999999800e+00 7.863349999999999618e+00 5.307369999999999699e+00 7.766269999999999563e+00 2.684039999999999981e+00 5.781030000000000335e+00 8.173600000000000421e+00 8.200820000000000221e+00 7.575179999999999580e+00 1.014306999999999981e+01 2.551950000000000163e+00 7.955070000000000086e+00 5.975399999999999601e-01 7.724099999999999966e+00 7.668739999999999668e+00 4.897109999999999630e+00 2.488960000000000061e+00 7.714500000000000135e+00 5.414030000000000342e+00 7.993330000000000268e+00 -2.551000000000000142e-02 9.959070000000000533e+00 1.052945000000000064e+01 1.020190000000000019e+01 1.029466999999999999e+01 5.145640000000000214e+00 2.442000000000000004e-01 5.338230000000000253e+00 3.404999999999999694e-02 3.098299999999999943e-01 5.171689999999999898e+00 5.393979999999999997e+00 2.750100000000000211e+00 3.039250000000000007e+00 5.309490000000000265e+00 2.729979999999999851e+00 2.313379999999999992e+00 3.240100000000000202e-01 2.800619999999999887e+00 8.115729999999999222e+00 5.502430000000000376e+00 2.877969999999999917e+00 7.589789999999999814e+00 1.133699999999999986e-01 8.951700000000000657e+00 4.241360000000000241e+00 1.050040000000000084e+00 9.276999999999999247e+00 4.248639999999999972e+00 6.560159999999999769e+00 6.700800000000000090e+00 8.806670000000000442e+00 1.470129999999999937e+00 6.344050000000000189e+00 9.321619999999999351e+00 6.779889999999999972e+00 1.067549999999999999e+00 8.824289999999999523e+00 1.448709999999999942e+00 5.047380000000000422e+00 6.654200000000000115e-01 7.831760000000000055e+00 4.106359999999999566e+00 6.363269999999999982e+00 1.410989999999999966e+00 3.935560000000000169e+00 6.309470000000000134e+00 9.574730000000000629e+00 3.671710000000000029e+00 4.472199999999999953e+00 4.203059999999999796e+00 3.827230000000000132e+00 3.831999999999999851e+00 9.581480000000000885e+00 8.700480000000000658e+00 9.638759999999999550e+00 8.210100000000000176e-01 3.757779999999999898e+00 8.416799999999999837e-01 9.975310000000000343e+00 8.583230000000000359e+00 1.603690000000000060e+00 1.871070000000000011e+00 9.472550000000000026e+00 1.673459999999999948e+00 6.707320000000000171e+00 8.909739999999999327e+00 6.680290000000000283e+00 1.440560000000000063e+00 8.952420000000000044e+00 7.067140000000000200e+00 7.026849999999999596e+00 9.132880000000000109e+00 4.129279999999999617e+00 3.459900000000000198e+00 8.884930000000000661e+00 4.061630000000000074e+00 9.213290000000000646e+00 9.290630000000000166e+00 9.368969999999999132e+00 3.707469999999999821e+00 1.004123000000000054e+01 9.555680000000000618e+00 8.645300000000000651e+00 3.586170000000000080e+00 1.535039999999999960e+00 2.271090000000000053e+00 3.602040000000000131e+00 1.398979999999999890e+00 5.691430000000000433e+00 3.635780000000000012e+00 8.754889999999999617e+00 2.037959999999999994e+00 4.674080000000000013e+00 6.980929999999999858e+00 4.464229999999999698e+00 1.282899999999999929e+00 9.801600000000000312e-01 5.409699999999999509e-01 1.072449999999999903e+00 9.130919999999999703e+00 6.640310000000000379e+00 1.989479999999999915e+00 6.443719999999999892e+00 4.035389999999999588e+00 1.262440000000000007e+00 6.405359999999999943e+00 9.449809999999999377e+00 6.081089999999999662e+00 9.892400000000000082e-01 1.087990000000000013e+00 6.708709999999999951e+00 1.714739999999999931e+00 6.312859999999999694e+00 6.318139999999999645e+00 6.402590000000000003e+00 1.333429999999999893e+00 6.383919999999999817e+00 6.518939999999999735e+00 7.082150000000000389e+00 5.845489999999999853e+00 7.763200000000000101e-01 3.685970000000000191e+00 6.757950000000000124e+00 2.002180000000000071e+00 9.132899999999999352e+00 7.263189999999999813e+00 5.903179999999999872e+00 4.390130000000000088e+00 6.656539999999999679e+00 7.078120000000000189e+00 9.599869999999999237e+00 6.651939999999999742e+00 3.702479999999999993e+00 1.172819999999999974e+00 6.673350000000000115e+00 4.135419999999999874e+00 6.880399999999999849e+00 7.458739999999999704e+00 9.464349999999999596e+00 9.304410000000000736e+00 3.877149999999999874e+00 9.687879999999999825e+00 4.453339999999999854e+00 8.924649999999999750e+00 1.490979999999999972e+00 4.383519999999999861e+00 9.337020000000000763e+00 1.173200000000000021e+00 9.461399999999999366e+00 9.560879999999999157e+00 6.556670000000000442e+00 4.551260000000000083e+00 9.056800000000000850e+00 6.366850000000000342e+00 9.710889999999999134e+00 6.279399999999999871e+00 3.707219999999999960e+00 4.078079999999999927e+00 6.320780000000000065e+00 4.510119999999999685e+00 9.238289999999999225e+00 6.895979999999999777e+00 8.745749999999999247e+00 3.957539999999999836e+00 4.591520000000000046e+00 8.786569999999999325e+00 9.967209999999999681e+00 1.676979999999999915e+00 1.621320000000000094e+00 8.504429999999999268e+00 1.012119999999999909e+00 9.896700000000000497e-01 3.327139999999999986e+00 1.357429999999999914e+00 6.600229999999999819e+00 1.145510000000000028e+00 1.411999999999999922e+00 6.651609999999999800e+00 6.847629999999999661e+00 1.581890000000000018e+00 3.942930000000000046e+00 7.224590000000000067e+00 1.384169999999999900e+00 3.645370000000000221e+00 1.386670000000000069e+00 1.282110000000000083e+00 9.054090000000000416e+00 4.235809999999999853e+00 3.849990000000000023e+00 8.126939999999999387e+00 7.336909999999999599e+00 1.259600000000000053e+00 4.074430000000000440e+00 3.968570000000000153e+00 1.145319999999999894e+00 3.935099999999999820e+00 9.562659999999999272e+00 2.006629999999999914e+00 8.962669999999999249e+00 9.456739999999999924e+00 8.611750000000000682e+00 9.706839999999999691e+00 6.079290000000000305e+00 4.051750000000000185e+00 3.826350000000000140e+00 1.475039999999999907e+00 4.307719999999999771e+00 4.732079999999999842e+00 6.996069999999999567e+00
2.672870000000000079e+00 1.034975000000000023e+01 2.357870000000000132e+00 2.521399999999999864e+00 1.011481999999999992e+01 7.732039999999999580e+00 2.639089999999999936e+00 5.407269999999999577e+00 2.551039999999999974e+00 2.492640000000000189e+00 5.153880000000000017e+00 7.634970000000000034e+00 4.084599999999999898e-01 2.738459999999999894e+00 2.325180000000000025e+00 8.681999999999999440e-02 2.433159999999999989e+00 7.864569999999999617e+00 2.469200000000000006e-01 7.874139999999999695e+00 2.568989999999999885e+00 9.979850000000000776e+00 7.790650000000000297e+00 7.877559999999999896e+00 8.000619999999999621e+00 2.812009999999999899e+00 5.368339999999999890e+00 7.699869999999999770e+00 2.610100000000000087e+00 1.043199999999999961e-01 7.590130000000000265e+00 7.853419999999999845e+00 5.226630000000000109e+00 7.692610000000000170e+00 7.920329999999999870e+00 1.065297999999999945e+01 5.423149999999999693e+00 8.344999999999999640e-02 1.061358000000000068e+01 5.769680000000000142e+00 1.019640000000000057e+01 5.552979999999999805e+00 5.065970000000000084e+00 5.244609999999999772e+00 1.077927000000000035e+01 5.484420000000000073e+00 5.483509999999999884e+00 5.265060000000000073e+00 5.330680000000000085e+00 2.589550000000000018e+00 2.828710000000000058e+00 4.961920000000000108e+00 2.755329999999999835e+00 7.800159999999999982e+00 5.072119999999999962e+00 7.712729999999999642e+00 2.814140000000000086e+00 5.149549999999999628e+00 7.927690000000000126e+00 8.001039999999999708e+00 8.406929999999999126e+00 6.308399999999999563e-01 2.917569999999999997e+00 7.541000000000000369e+00 2.918000000000000108e-02 8.217769999999999797e+00 7.797649999999999970e+00 5.582530000000000214e+00 2.539010000000000211e+00 7.675790000000000113e+00 4.758479999999999599e+00 7.983050000000000423e+00 1.299800000000000122e-01 3.682500000000000218e-01 1.061567999999999934e+01 1.018929999999999936e+01 1.019260000000000055e+01 5.518119999999999692e+00 1.010568999999999917e+01 5.254310000000000258e+00 1.070200000000000040e-01 1.013059999999999938e+01 5.430439999999999934e+00 5.143480000000000274e+00 2.478250000000000064e+00 2.755240000000000133e+00 5.202919999999999767e+00 2.866019999999999790e+00 2.505790000000000184e+00 1.033858000000000033e+01 2.628019999999999801e+00 7.745079999999999742e+00 5.248059999999999725e+00 2.666269999999999918e+00 7.993730000000000224e+00 1.056478000000000073e+01 8.630589999999999762e+00 4.234790000000000276e+00 9.297400000000000109e-01 9.136369999999999436e+00 3.795560000000000045e+00 6.739449999999999719e+00 8.989470000000000738e+00 9.473440000000000083e+00 1.308999999999999941e+00 8.225139999999999674e+00 9.652760000000000673e+00 4.309409999999999741e+00 4.036139999999999617e+00 1.463680000000000092e+00 6.415589999999999904e+00 7.369530000000000136e+00 6.780399999999999761e-01 1.040597999999999956e+01 4.033170000000000144e+00 6.377510000000000012e+00 4.153789999999999871e+00 8.036900000000000155e-01 5.816379999999999661e+00 9.497600000000000264e+00 3.623400000000000176e+00 3.758729999999999905e+00 3.802610000000000046e+00 6.147789999999999644e+00 3.808409999999999851e+00 9.427580000000000737e+00 3.697700000000000209e+00 9.285270000000000579e+00 6.229230000000000267e+00 3.793950000000000156e+00 9.311479999999999535e+00 8.999259999999999593e+00 9.357710000000000861e+00 1.465430000000000010e+00 1.503230000000000066e+00 8.459889999999999688e+00 1.230550000000000033e+00 6.504120000000000346e+00 9.116669999999999163e+00 6.901670000000000194e+00 1.145019999999999927e+00 8.950469999999999260e+00 9.355330000000000368e+00 7.080219999999999736e+00 8.822269999999999612e+00 4.390710000000000335e+00 4.009570000000000078e+00 1.065970000000000084e+00 3.918330000000000091e+00 1.036170000000000035e+00 1.152670000000000083e+00 6.323179999999999801e+00 1.184169999999999945e+00 9.387389999999999901e+00 8.825329999999999231e+00 9.653610000000000468e+00 4.467789999999999928e+00 1.026429999999999954e+00 1.660760000000000014e+00 5.895109999999999850e+00 9.441500000000000448e-01 8.642229999999999634e+00 3.854610000000000092e+00 6.621570000000000178e+00 1.225719999999999921e+00 4.176580000000000403e+00 6.690500000000000114e+00 6.632030000000000314e+00 2.552500000000000213e+00 1.021640000000000104e+00 3.961570000000000036e+00 1.548140000000000072e+00 3.065990000000000215e+00 8.756280000000000285e+00 5.232299999999999729e-01 9.461840000000000472e+00 3.754570000000000185e+00 1.351180000000000048e+00 8.453580000000000538e+00 8.529939999999999856e+00 7.395310000000000272e+00 1.902830000000000021e+00 1.913229999999999986e+00 3.200899999999999856e+00 8.789320000000000022e+00 3.455360000000000209e+00 6.719590000000000174e+00 6.329620000000000246e+00 8.173700000000000410e-01 8.989219999999999544e+00 6.983270000000000088e+00 6.266040000000000276e+00 6.346729999999999983e+00 1.544580000000000064e+00 4.598410000000000331e+00 9.378859999999999530e+00 9.822899999999999965e-01 8.939260000000000872e+00 9.076180000000000803e+00 6.871190000000000353e+00 3.467070000000000096e+00 3.571909999999999918e+00 6.301059999999999661e+00 9.287129999999999441e+00 6.098029999999999617e+00 3.735630000000000006e+00 1.474080000000000057e+00 6.479779999999999873e+00 3.132340000000000124e+00 6.685999999999999943e+00 6.100469999999999615e+00 8.857910000000000394e+00 1.498520000000000074e+00 6.562680000000000291e+00 8.989039999999999253e+00 6.883180000000000298e+00 9.503759999999999764e+00 1.938870000000000093e+00 4.100769999999999804e+00 1.693570000000000020e+00 7.827699999999999658e-01 9.433719999999999217e+00 8.584009999999999252e+00 6.017769999999999619e+00 9.120749999999999247e+00 6.613599999999999923e+00 6.388200000000000323e+00 6.598349999999999937e+00 6.030599999999999739e+00 4.033500000000000085e+00 4.171100000000000030e+00 9.018760000000000332e+00 3.576340000000000074e+00 9.181969999999999743e+00 6.120809999999999640e+00 6.277090000000000281e+00 3.522940000000000182e+00 6.478830000000000311e+00 8.798009999999999664e+00 9.367070000000000007e+00 1.242119999999999891e+00 8.940970000000000084e+00 9.406299999999999661e-01 8.898899999999999588e-01 1.451640000000000041e+00 6.238080000000000069e+00 1.033959999999999990e+00 6.368739999999999846e+00 3.966149999999999842e+00 1.146390000000000020e+00 6.321579999999999977e+00 6.550290000000000390e+00 1.339020000000000099e+00 3.816349999999999909e+00 6.344269999999999854e+00 1.455100000000000060e+00 1.297509999999999941e+00 1.348829999999999973e+00 5.873859999999999637e+00 8.675140000000000740e+00 4.230909999999999727e+00 4.066919999999999646e+00 1.431820000000000093e+00 9.793260000000000076e+00 1.049909999999999899e+00 3.783689999999999998e+00 3.935290000000000177e+00 3.871570000000000178e+00 3.963799999999999990e+00 9.282740000000000435e+00 3.830670000000000019e+00 9.495390000000000441e+00 6.987400000000000277e-01 1.238369999999999971e+00 8.817349999999999355e+00 6.243470000000000297e+00 3.765589999999999993e+00 4.171929999999999694e+00 1.171799999999999953e+00 3.982790000000000052e+00 4.231519999999999726e+00 6.465419999999999945e+00