2.781740000000000101e+00 7.846000000000000196e-02 2.779650000000000176e+00 2.828520000000000145e+00 1.010576000000000008e+01 7.998020000000000351e+00 2.533679999999999932e+00 5.419389999999999930e+00 2.536179999999999879e+00 2.626040000000000152e+00 4.842100000000000293e+00 7.966969999999999885e+00 4.116999999999999826e-02 2.571410000000000196e+00 2.355630000000000113e+00 -1.017000000000000022e-02 2.540280000000000094e+00 7.744580000000000020e+00 1.004832999999999998e+01 7.698039999999999772e+00 2.403649999999999842e+00 2.360999999999999904e-02 7.547390000000000043e+00 7.665409999999999613e+00 7.721210000000000129e+00 2.568109999999999893e+00 4.932590000000000252e+00 7.787169999999999703e+00 2.499210000000000154e+00 1.021660999999999930e+01 7.748260000000000147e+00 7.545010000000000439e+00 5.098440000000000083e+00 7.756459999999999688e+00 7.586319999999999730e+00 1.031121000000000087e+01 5.004760000000000097e+00 1.009866000000000064e+01 1.532000000000000028e-02 5.194149999999999601e+00 7.893000000000000016e-02 5.279460000000000264e+00 5.123310000000000031e+00 4.974370000000000402e+00 1.108100000000000057e-01 5.031939999999999635e+00 5.104009999999999714e+00 5.360689999999999955e+00 4.942929999999999602e+00 2.532939999999999969e+00 2.421930000000000138e+00 4.843079999999999607e+00 2.642840000000000078e+00 7.672180000000000000e+00 5.063670000000000115e+00 7.681639999999999802e+00 2.419399999999999995e+00 4.916610000000000369e+00 7.543470000000000120e+00 7.709579999999999878e+00 7.766659999999999897e+00 1.212700000000000028e-01 2.708190000000000097e+00 7.644770000000000287e+00 1.006686000000000014e+01 7.980789999999999829e+00 7.572009999999999685e+00 5.233839999999999826e+00 2.654599999999999849e+00 7.679979999999999585e+00 5.114429999999999588e+00 7.960119999999999862e+00 1.033300000000000052e-01 1.007736000000000054e+01 1.261200000000000099e-01 8.588999999999999413e-02 2.385999999999999927e-02 5.438019999999999854e+00 1.368499999999999994e-01 5.093619999999999592e+00 1.295399999999999885e-01 -2.299000000000000002e-02 5.059099999999999930e+00 5.322549999999999670e+00 2.584769999999999790e+00 2.655219999999999914e+00 5.010869999999999713e+00 2.524830000000000130e+00 2.568379999999999885e+00 1.051701000000000086e+01 2.771049999999999791e+00 7.771399999999999864e+00 4.971960000000000157e+00 2.695800000000000196e+00 7.666559999999999597e+00 1.035571000000000019e+01 8.812210000000000321e+00 3.820199999999999818e+00 1.115280000000000049e+00 8.731840000000000046e+00 3.830519999999999925e+00 6.325590000000000046e+00 8.775389999999999802e+00 8.737539999999999196e+00 1.060850000000000071e+00 8.699279999999999902e+00 8.850110000000000809e+00 6.357370000000000410e+00 3.991299999999999848e+00 1.280289999999999928e+00 3.826740000000000030e+00 4.042460000000000164e+00 1.098919999999999897e+00 9.103569999999999496e+00 4.030030000000000001e+00 6.216330000000000133e+00 3.923649999999999860e+00 4.087519999999999598e+00 6.209030000000000271e+00 9.252689999999999415e+00 3.827640000000000153e+00 3.708180000000000032e+00 3.546110000000000095e+00 3.895929999999999893e+00 3.686770000000000103e+00 9.302809999999999135e+00 4.017800000000000260e+00 9.024589999999999890e+00 3.942800000000000082e+00 4.000750000000000028e+00 8.763370000000000104e+00 9.025959999999999539e+00 8.852639999999999176e+00 1.391170000000000018e+00 1.358109999999999928e+00 8.679550000000000765e+00 1.350170000000000092e+00 6.614410000000000345e+00 8.999370000000000758e+00 6.189600000000000435e+00 1.449100000000000055e+00 8.859040000000000248e+00 6.205960000000000143e+00 6.664010000000000211e+00 8.958019999999999428e+00 3.904819999999999958e+00 3.581929999999999836e+00 8.967670000000000030e+00 3.753120000000000012e+00 8.935719999999999885e+00 9.050649999999999196e+00 8.909840000000000870e+00 3.786109999999999864e+00 9.224149999999999849e+00 8.849809999999999732e+00 9.067379999999999995e+00 3.652680000000000149e+00 1.111450000000000049e+00 1.307269999999999932e+00 3.514029999999999987e+00 1.199850000000000083e+00 6.488769999999999705e+00 3.676340000000000163e+00 6.620210000000000150e+00 1.238769999999999927e+00 3.778469999999999995e+00 6.096689999999999721e+00 6.529040000000000177e+00 1.743039999999999923e+00 1.866430000000000033e+00 3.220950000000000202e+00 1.718769999999999909e+00 1.692150000000000043e+00 8.692000000000000171e+00 1.556780000000000053e+00 7.122919999999999696e+00 3.440129999999999910e+00 1.455370000000000053e+00 6.649869999999999948e+00 8.773809999999999221e+00 6.222590000000000288e+00 1.727309999999999901e+00 7.217000000000000082e-01 5.963940000000000019e+00 1.884560000000000013e+00 5.972409999999999997e+00 6.442650000000000432e+00 6.382559999999999789e+00 8.097100000000000408e-01 6.190500000000000114e+00 6.838199999999999612e+00 6.042760000000000353e+00 6.508099999999999774e+00 1.587390000000000079e+00 3.363719999999999821e+00 6.562920000000000087e+00 1.704949999999999966e+00 8.681449999999999889e+00 6.543330000000000091e+00 6.981449999999999712e+00 3.410779999999999923e+00 6.549389999999999823e+00 6.722690000000000055e+00 8.686619999999999564e+00 6.051120000000000054e+00 4.091770000000000351e+00 1.738860000000000072e+00 6.006289999999999907e+00 4.370330000000000048e+00 7.016119999999999912e+00 6.094689999999999941e+00 9.154740000000000322e+00 1.535930000000000017e+00 5.896600000000000286e+00 9.265620000000000189e+00 7.096320000000000405e+00 9.057090000000000529e+00 1.200890000000000013e+00 4.004369999999999763e+00 9.144119999999999138e+00 1.270680000000000032e+00 9.322879999999999612e+00 8.971040000000000347e+00 6.143709999999999560e+00 3.948129999999999917e+00 8.953269999999999840e+00 6.254019999999999690e+00 9.333830000000000737e+00 6.615380000000000038e+00 4.212040000000000006e+00 4.228650000000000020e+00 6.479379999999999917e+00 4.026189999999999714e+00 9.405680000000000263e+00 6.669310000000000294e+00 9.382979999999999876e+00 4.339999999999999858e+00 6.753790000000000404e+00 9.346379999999999910e+00 9.654669999999999419e+00 1.110500000000000043e+00 1.624509999999999899e+00 8.999599999999999822e-01 7.832400000000000473e-01 1.985740000000000061e+00 5.819259999999999877e+00 1.172420000000000018e+00 6.694709999999999717e+00 7.675300000000000455e-01 1.214609999999999967e+00 6.855749999999999567e+00 6.069289999999999630e+00 1.499339999999999895e+00 4.417239999999999611e+00 4.371360000000000134e+00 1.521290000000000031e+00 4.229879999999999640e+00 9.654600000000000293e+00 1.644889999999999963e+00 9.460670000000000357e+00 4.438139999999999752e+00 1.678199999999999914e+00 9.264319999999999666e+00 9.611250000000000071e+00 1.289709999999999912e+00 4.105220000000000091e+00 1.780839999999999979e+00 1.132519999999999971e+00 4.321579999999999977e+00 6.917740000000000222e+00 1.216630000000000100e+00 9.277820000000000178e+00 1.778129999999999988e+00 9.070599999999999774e-01 9.370990000000000819e+00 7.137859999999999872e+00
2.491319999999999979e+00 3.586000000000000298e-02 2.565209999999999990e+00 2.730389999999999873e+00 9.794190000000000396e+00 7.746310000000000251e+00 2.488129999999999953e+00 5.311849999999999739e+00 2.571349999999999802e+00 2.655819999999999848e+00 4.996769999999999712e+00 8.272769999999999513e+00 3.565200000000000036e-01 2.555460000000000065e+00 2.629539999999999988e+00 1.487199999999999911e-01 2.623920000000000030e+00 7.610299999999999621e+00 -2.001000000000000001e-02 7.885670000000000179e+00 2.369390000000000107e+00 9.855570000000000164e+00 7.921909999999999563e+00 7.564729999999999954e+00 7.662770000000000081e+00 2.625970000000000137e+00 5.063329999999999664e+00 7.327180000000000248e+00 2.543940000000000090e+00 1.025000000000000043e-02 7.523060000000000080e+00 7.771359999999999602e+00 5.205000000000000071e+00 7.905560000000000365e+00 7.614880000000000315e+00 1.016188000000000002e+01 5.081240000000000201e+00 1.002168999999999954e+01 1.041427999999999976e+01 5.136029999999999873e+00 1.411199999999999954e-01 5.078750000000000320e+00 5.389990000000000059e+00 5.204539999999999722e+00 1.576799999999999868e-01 5.258849999999999802e+00 5.057369999999999699e+00 5.570249999999999702e+00 5.097470000000000390e+00 2.332559999999999967e+00 2.672280000000000211e+00 4.958840000000000359e+00 2.390099999999999891e+00 7.674409999999999954e+00 5.344579999999999664e+00 7.711969999999999992e+00 2.557110000000000216e+00 5.309129999999999683e+00 7.523629999999999818e+00 7.752399999999999736e+00 7.414640000000000342e+00 2.191500000000000115e-01 2.434649999999999981e+00 7.558390000000000164e+00 2.794599999999999862e-01 7.883810000000000429e+00 7.752329999999999721e+00 5.139230000000000409e+00 2.588670000000000027e+00 7.639660000000000117e+00 4.861880000000000202e+00 8.025000000000000355e+00 1.400000000000000029e-02 2.646000000000000019e-01 6.872999999999999943e-02 1.060099999999999931e-01 4.427900000000000169e-01 5.241209999999999702e+00 1.778500000000000081e-01 5.086430000000000007e+00 7.482999999999999374e-02 2.830099999999999838e-01 5.385699999999999932e+00 5.248809999999999754e+00 2.357429999999999914e+00 2.963080000000000158e+00 5.111970000000000347e+00 2.536329999999999973e+00 2.439410000000000078e+00 1.016577999999999982e+01 2.495249999999999968e+00 7.508029999999999760e+00 5.231959999999999944e+00 2.700380000000000003e+00 7.376850000000000129e+00 8.669000000000000317e-02 9.435520000000000351e+00 4.037700000000000067e+00 1.609650000000000025e+00 9.156069999999999709e+00 4.515749999999999709e+00 6.469929999999999737e+00 8.944499999999999673e+00 9.202090000000000103e+00 1.643129999999999979e+00 8.773189999999999600e+00 9.352090000000000458e+00 6.763670000000000293e+00 3.845740000000000158e+00 1.622169999999999890e+00 4.094940000000000246e+00 3.578250000000000153e+00 1.034499999999999975e+00 9.314360000000000639e+00 3.579499999999999904e+00 5.915549999999999642e+00 5.166940000000000310e+00 4.023410000000000153e+00 6.162049999999999805e+00 9.457710000000000505e+00 3.709249999999999936e+00 4.126839999999999620e+00 3.394210000000000171e+00 3.767939999999999845e+00 3.505290000000000017e+00 9.190749999999999531e+00 3.693150000000000155e+00 8.272429999999999950e+00 3.516640000000000210e+00 4.148679999999999701e+00 8.909470000000000667e+00 8.729419999999999291e+00 8.458439999999999515e+00 1.339450000000000029e+00 1.017330000000000068e+00 8.830550000000000566e+00 1.651780000000000026e+00 6.353850000000000442e+00 9.011580000000000368e+00 6.506529999999999703e+00 8.332699999999999552e-01 8.996660000000000323e+00 6.789789999999999992e+00 6.049030000000000129e+00 8.848660000000000636e+00 3.950340000000000185e+00 4.035999999999999588e+00 8.689099999999999824e+00 3.757330000000000059e+00 9.456839999999999691e+00 8.824870000000000658e+00 8.995060000000000500e+00 4.201489999999999725e+00 9.258699999999999264e+00 8.855850000000000222e+00 9.484519999999999840e+00 3.515880000000000116e+00 1.704309999999999992e+00 1.521200000000000108e+00 3.729229999999999823e+00 9.430600000000000094e-01 6.520129999999999981e+00 4.301149999999999807e+00 6.334609999999999630e+00 1.513300000000000090e+00 3.734140000000000015e+00 3.671479999999999855e+00 6.485079999999999956e+00 1.730820000000000025e+00 1.556759999999999922e+00 3.675879999999999814e+00 1.331830000000000069e+00 1.203079999999999927e+00 9.003880000000000550e+00 1.452450000000000019e+00 6.706559999999999633e+00 3.769060000000000077e+00 1.599320000000000075e+00 5.839170000000000194e+00 9.759349999999999525e+00 6.090550000000000352e+00 1.273600000000000065e+00 1.319790000000000019e+00 6.220500000000000362e+00 1.009630000000000027e+00 6.692700000000000315e+00 6.706660000000000288e+00 6.325070000000000192e+00 1.236739999999999950e+00 6.408459999999999823e+00 6.182830000000000048e+00 6.759979999999999656e+00 6.774569999999999759e+00 1.315890000000000004e+00 3.989180000000000170e+00 6.094199999999999839e+00 1.386470000000000091e+00 9.315659999999999386e+00 6.369740000000000180e+00 6.348080000000000389e+00 3.952859999999999818e+00 6.483810000000000073e+00 6.372029999999999639e+00 9.437989999999999213e+00 6.680950000000000166e+00 3.778399999999999981e+00 1.294899999999999940e+00 6.595320000000000071e+00 3.498409999999999798e+00 6.495820000000000149e+00 6.663750000000000284e+00 8.849999999999999645e+00 1.012110000000000065e+00 5.573660000000000281e+00 8.201950000000000074e+00 5.668219999999999814e+00 9.186609999999999943e+00 1.506909999999999972e+00 3.756530000000000147e+00 8.683820000000000761e+00 1.485109999999999930e+00 9.019859999999999545e+00 9.100260000000000460e+00 6.297270000000000145e+00 3.381149999999999878e+00 8.922700000000000742e+00 6.270360000000000156e+00 8.636179999999999524e+00 6.195009999999999906e+00 3.948339999999999961e+00 4.010500000000000398e+00 6.220959999999999823e+00 3.814130000000000020e+00 9.000280000000000058e+00 6.266219999999999679e+00 9.084720000000000795e+00 3.690090000000000092e+00 6.848390000000000200e+00 9.036229999999999762e+00 8.940030000000000143e+00 1.387380000000000058e+00 1.161129999999999995e+00 9.426299999999999679e-01 1.258969999999999922e+00 1.377539999999999987e+00 6.201780000000000292e+00 1.227309999999999901e+00 6.472470000000000390e+00 1.444099999999999939e+00 1.490799999999999903e+00 6.372519999999999740e+00 6.536109999999999864e+00 1.170919999999999961e+00 4.335169999999999746e+00 3.783329999999999860e+00 9.517799999999999594e-01 3.676740000000000119e+00 9.211880000000000734e+00 1.022049999999999903e+00 9.447649999999999437e+00 3.568620000000000125e+00 1.774669999999999970e+00 8.214270000000000849e+00 8.741910000000000736e+00 1.673240000000000061e+00 4.117720000000000269e+00 1.183980000000000032e+00 1.358610000000000095e+00 4.062289999999999957e+00 6.714809999999999945e+00 1.819420000000000037e+00 9.103730000000000544e+00 7.387399999999999523e-01 1.176520000000000010e+00 9.228630000000000777e+00 6.162919999999999732e+00
2.690209999999999990e+00 1.007297999999999938e+01 2.844549999999999912e+00 2.565059999999999896e+00 5.655999999999999917e-02 7.995870000000000033e+00 2.882839999999999847e+00 5.127810000000000201e+00 2.614160000000000039e+00 2.767110000000000181e+00 5.067520000000000024e+00 8.080040000000000333e+00 1.328699999999999881e-01 2.528719999999999857e+00 2.304269999999999818e+00 -1.811000000000000110e-02 2.650889999999999969e+00 7.594000000000000306e+00 1.130800000000000000e-01 7.543680000000000163e+00 2.493510000000000115e+00 9.988250000000000739e+00 7.486760000000000304e+00 7.701299999999999812e+00 7.748370000000000424e+00 2.576480000000000103e+00 5.096070000000000100e+00 7.508600000000000385e+00 2.545790000000000219e+00 1.013649999999999984e+01 7.786950000000000038e+00 7.615339999999999776e+00 4.964879999999999960e+00 7.706640000000000157e+00 7.577200000000000379e+00 1.035399999999999920e+01 4.892830000000000013e+00 1.004777999999999949e+01 1.534800000000000053e-01 5.230170000000000208e+00 7.963000000000000633e-02 5.209839999999999804e+00 5.085110000000000241e+00 4.947879999999999612e+00 1.696100000000000108e-01 4.913380000000000081e+00 4.965360000000000440e+00 5.445350000000000357e+00 5.125390000000000335e+00 2.400749999999999940e+00 2.452160000000000117e+00 4.853170000000000428e+00 2.630689999999999973e+00 7.513799999999999812e+00 5.011870000000000047e+00 7.655199999999999783e+00 2.402200000000000113e+00 4.962729999999999642e+00 7.665230000000000210e+00 7.627349999999999852e+00 7.678460000000000285e+00 1.004828000000000010e+01 2.664309999999999956e+00 7.516280000000000072e+00 1.003598000000000035e+01 8.002420000000000755e+00 7.701360000000000205e+00 5.147649999999999615e+00 2.519159999999999844e+00 7.485319999999999752e+00 5.285210000000000186e+00 7.873990000000000045e+00 -2.129999999999999949e-03 1.017399999999999971e-01 1.047669999999999924e+01 1.660000000000000017e-02 7.975999999999999757e-02 5.214999999999999858e+00 -1.056999999999999953e-02 4.987840000000000273e+00 1.047470000000000034e+01 -1.085000000000000027e-02 5.002399999999999736e+00 5.288450000000000095e+00 2.596249999999999947e+00 2.477199999999999847e+00 4.980319999999999858e+00 2.742179999999999840e+00 2.517490000000000006e+00 1.028749999999999964e+01 2.593550000000000022e+00 7.563369999999999926e+00 5.174549999999999983e+00 2.619240000000000013e+00 7.738990000000000258e+00 1.030560000000000009e+01 8.770089999999999719e+00 3.950670000000000126e+00 1.286070000000000046e+00 8.620660000000000878e+00 3.731259999999999799e+00 6.511930000000000440e+00 8.597789999999999822e+00 8.795769999999999200e+00 1.203850000000000087e+00 8.568070000000000519e+00 8.798849999999999838e+00 6.277919999999999945e+00 4.144280000000000186e+00 1.217440000000000078e+00 3.922029999999999905e+00 4.235409999999999897e+00 1.296459999999999946e+00 9.109920000000000684e+00 4.220189999999999664e+00 6.396950000000000358e+00 4.003770000000000273e+00 4.032939999999999969e+00 6.313100000000000378e+00 9.079019999999999868e+00 4.148559999999999803e+00 3.864059999999999828e+00 3.905159999999999965e+00 4.081360000000000099e+00 3.755830000000000002e+00 8.971470000000000056e+00 4.075580000000000425e+00 8.851020000000000110e+00 3.926870000000000083e+00 3.871360000000000134e+00 8.793950000000000600e+00 9.036680000000000490e+00 8.539410000000000167e+00 1.322019999999999973e+00 1.223340000000000094e+00 8.829689999999999372e+00 1.096810000000000063e+00 6.821159999999999890e+00 8.789020000000000721e+00 6.190739999999999910e+00 1.373720000000000052e+00 8.829489999999999839e+00 6.275590000000000224e+00 6.615800000000000125e+00 9.114039999999999253e+00 3.805689999999999795e+00 3.812689999999999912e+00 9.055600000000000094e+00 3.780969999999999942e+00 9.129429999999999268e+00 9.104079999999999728e+00 8.862759999999999749e+00 3.745620000000000172e+00 8.965630000000000877e+00 9.046960000000000335e+00 8.983240000000000336e+00 3.483800000000000008e+00 1.026380000000000070e+00 1.249239999999999906e+00 3.672680000000000167e+00 1.075560000000000072e+00 6.325450000000000017e+00 3.584099999999999842e+00 6.519339999999999691e+00 1.292699999999999960e+00 3.512119999999999909e+00 6.180380000000000429e+00 6.444890000000000008e+00 1.754269999999999996e+00 1.739330000000000043e+00 3.197439999999999838e+00 1.778599999999999959e+00 1.933449999999999891e+00 8.405060000000000642e+00 1.802149999999999919e+00 6.799649999999999750e+00 3.310280000000000111e+00 1.636779999999999902e+00 6.957189999999999763e+00 8.572200000000000486e+00 5.999539999999999651e+00 1.802580000000000071e+00 7.622999999999999776e-01 6.119360000000000355e+00 1.674220000000000041e+00 6.144149999999999778e+00 6.201850000000000307e+00 6.512069999999999581e+00 9.313900000000000512e-01 6.096680000000000099e+00 6.798820000000000086e+00 6.020719999999999850e+00 6.565339999999999954e+00 1.576109999999999900e+00 3.512239999999999807e+00 6.726329999999999920e+00 1.845250000000000057e+00 8.449490000000000833e+00 6.858010000000000161e+00 7.064470000000000027e+00 3.259269999999999889e+00 6.744860000000000078e+00 7.069890000000000008e+00 8.596299999999999386e+00 6.147039999999999615e+00 4.124920000000000364e+00 2.007200000000000095e+00 5.870779999999999887e+00 4.341890000000000249e+00 7.149359999999999715e+00 5.878300000000000303e+00 9.441190000000000637e+00 1.989069999999999894e+00 5.834730000000000416e+00 9.414130000000000109e+00 7.258189999999999920e+00 9.126110000000000610e+00 1.243260000000000032e+00 3.835620000000000029e+00 9.104129999999999612e+00 1.435210000000000097e+00 9.263780000000000570e+00 9.198370000000000601e+00 6.199160000000000004e+00 3.795859999999999790e+00 8.939989999999999881e+00 6.450599999999999667e+00 9.303039999999999310e+00 6.778279999999999639e+00 4.385720000000000063e+00 4.542200000000000237e+00 6.658249999999999780e+00 4.402650000000000396e+00 9.690649999999999764e+00 6.899149999999999672e+00 9.440920000000000201e+00 4.479029999999999845e+00 6.450029999999999930e+00 9.221899999999999764e+00 9.701639999999999375e+00 9.971900000000000208e-01 1.881669999999999954e+00 5.870600000000000263e-01 9.193000000000000060e-01 1.934379999999999988e+00 5.817660000000000053e+00 9.327499999999999680e-01 6.813329999999999664e+00 5.039200000000000346e-01 9.115100000000000424e-01 6.806759999999999700e+00 5.806000000000000050e+00 1.754059999999999953e+00 4.415090000000000181e+00 4.530969999999999942e+00 1.617390000000000105e+00 4.238879999999999981e+00 9.546829999999999927e+00 1.656639999999999890e+00 9.292930000000000135e+00 4.629129999999999967e+00 1.638949999999999907e+00 9.557349999999999568e+00 9.730650000000000688e+00 1.211859999999999937e+00 4.273109999999999964e+00 1.791490000000000027e+00 1.081290000000000084e+00 4.569630000000000081e+00 6.990639999999999965e+00 8.652600000000000291e-01 9.384109999999999729e+00 1.890570000000000084e+00 7.757800000000000251e-01 9.487759999999999749e+00 7.198409999999999975e+00
2.823030000000000150e+00 1.014171999999999940e+01 2.163199999999999790e+00 2.922670000000000101e+00 3.215600000000000125e-01 7.711710000000000065e+00 2.528350000000000097e+00 5.021659999999999791e+00 2.379090000000000149e+00 2.849299999999999944e+00 5.210899999999999643e+00 8.383720000000000283e+00 2.063500000000000056e-01 2.582969999999999988e+00 3.131940000000000168e+00 1.016080999999999968e+01 2.515260000000000051e+00 7.906419999999999781e+00 2.429300000000000070e-01 7.664869999999999628e+00 1.937140000000000084e+00 5.782999999999999946e-02 8.130020000000000024e+00 7.983259999999999579e+00 7.841070000000000206e+00 1.969109999999999916e+00 4.798339999999999606e+00 7.877390000000000114e+00 2.647600000000000176e+00 1.028387000000000029e+01 8.251160000000000494e+00 8.531420000000000670e+00 5.334909999999999819e+00 7.671999999999999709e+00 7.966219999999999857e+00 1.057427000000000028e+01 5.177270000000000039e+00 2.058999999999999997e-01 1.056466999999999956e+01 5.008329999999999949e+00 4.367199999999999971e-01 5.239860000000000184e+00 5.309709999999999930e+00 5.362400000000000055e+00 3.963599999999999901e-01 5.465580000000000105e+00 5.126050000000000217e+00 5.281889999999999752e+00 5.102289999999999992e+00 2.921060000000000212e+00 2.669080000000000119e+00 5.551510000000000389e+00 2.814740000000000020e+00 7.799970000000000070e+00 5.332069999999999865e+00 7.840360000000000440e+00 2.873099999999999987e+00 5.293759999999999799e+00 7.762699999999999712e+00 7.887340000000000018e+00 7.896849999999999703e+00 1.016262000000000043e+01 2.536729999999999929e+00 7.737300000000000288e+00 1.770299999999999929e-01 7.846239999999999881e+00 8.017440000000000566e+00 5.307959999999999567e+00 2.660740000000000105e+00 7.830759999999999721e+00 5.470220000000000304e+00 8.367900000000000560e+00 1.596299999999999941e-01 1.023182000000000080e+01 1.054447000000000045e+01 7.866999999999999549e-01 1.037941999999999965e+01 4.936280000000000001e+00 2.235499999999999987e-01 5.516029999999999767e+00 1.009869999999999912e+01 1.026366999999999940e+01 5.314790000000000347e+00 5.263020000000000032e+00 2.343249999999999833e+00 3.114380000000000148e+00 5.693810000000000038e+00 2.694669999999999899e+00 2.495730000000000004e+00 1.066136999999999979e+01 2.866080000000000183e+00 7.870510000000000339e+00 5.052870000000000417e+00 2.677119999999999944e+00 7.875250000000000306e+00 1.025547000000000075e+01 8.977650000000000574e+00 4.015970000000000262e+00 1.529430000000000067e+00 9.646979999999999222e+00 4.602439999999999642e+00 7.037969999999999615e+00 9.347289999999999210e+00 9.319039999999999324e+00 1.298249999999999904e+00 9.623820000000000263e+00 1.000262999999999991e+01 6.792119999999999713e+00 3.438470000000000137e+00 1.575080000000000036e+00 4.853030000000000399e+00 3.750900000000000123e+00 1.042399999999999993e+00 9.557980000000000587e+00 4.651239999999999597e+00 7.045350000000000001e+00 4.623669999999999725e+00 3.904420000000000002e+00 6.380670000000000286e+00 9.697089999999999321e+00 3.922219999999999818e+00 4.222690000000000055e+00 3.984360000000000124e+00 4.176859999999999573e+00 3.636470000000000091e+00 9.108589999999999520e+00 4.173580000000000290e+00 9.501070000000000348e+00 3.400459999999999816e+00 3.452659999999999840e+00 8.559469999999999246e+00 8.550200000000000244e+00 6.960189999999999877e+00 6.583900000000000308e-01 8.963299999999999601e-01 8.438169999999999504e+00 1.846559999999999979e+00 7.086050000000000182e+00 9.361069999999999780e+00 7.097240000000000215e+00 5.428100000000000147e-01 9.374019999999999797e+00 7.037539999999999907e+00 6.529630000000000045e+00 8.942399999999999238e+00 3.632029999999999870e+00 4.240999999999999659e+00 9.347220000000000084e+00 3.957009999999999916e+00 9.099209999999999354e+00 9.579750000000000654e+00 8.933080000000000354e+00 3.932679999999999954e+00 8.630420000000000869e+00 9.249090000000000700e+00 9.023220000000000240e+00 4.125539999999999985e+00 1.259810000000000096e+00 1.355350000000000055e+00 4.940240000000000187e+00 9.557499999999999885e-01 7.093140000000000001e+00 4.150540000000000340e+00 6.420139999999999958e+00 1.864999999999999991e+00 6.759059999999999846e+00 3.959940000000000015e+00 8.902419999999999334e+00 1.037700000000000011e-01 2.165280000000000094e+00 5.748160000000000380e+00 1.516720000000000068e+00 9.048199999999999577e-01 5.165100000000000247e-01 1.495419999999999972e+00 6.504730000000000345e+00 5.813189999999999635e+00 1.780820000000000070e+00 6.458730000000000082e+00 8.229999999999999538e-01 6.268650000000000055e+00 1.373629999999999907e+00 3.524610000000000021e+00 6.637089999999999712e+00 1.576659999999999950e+00 9.000970000000000582e+00 6.797729999999999606e+00 6.529379999999999740e+00 6.862339999999999662e+00 6.572750000000000092e+00 6.523649999999999949e+00 9.665720000000000312e+00 6.527529999999999610e+00 6.012069999999999581e+00 1.639129999999999976e+00 6.700590000000000046e+00 3.287310000000000176e+00 6.324559999999999960e+00 6.447899999999999743e+00 8.732789999999999608e+00 1.587699999999999889e+00 6.870930000000000426e+00 8.890140000000000597e+00 6.981740000000000279e+00 8.816769999999999996e+00 1.612919999999999909e+00 2.770399999999999974e+00 9.296540000000000248e+00 1.292650000000000077e+00 9.399200000000000443e+00 7.980570000000000164e+00 6.874100000000000321e+00 4.185299999999999798e+00 9.201330000000000453e+00 6.724230000000000373e+00 8.902960000000000207e+00 6.350839999999999819e+00 4.174330000000000318e+00 3.741249999999999964e+00 6.356779999999999653e+00 3.558330000000000215e+00 6.944299999999999917e-01 6.514310000000000045e+00 8.941940000000000666e+00 4.390530000000000044e+00 6.241310000000000358e+00 9.082140000000000768e+00 9.573579999999999757e+00 1.117890000000000050e+00 6.911300000000000221e-01 3.204330000000000123e+00 1.471850000000000103e+00 1.711969999999999992e+00 7.925569999999999560e+00 1.031076999999999977e+01 5.647420000000000329e+00 3.048449999999999882e+00 1.406090000000000062e+00 6.939219999999999722e+00 8.929149999999999920e+00 1.426800000000000068e+00 3.901699999999999946e+00 4.140590000000000437e+00 1.833250000000000046e+00 4.388539999999999885e+00 9.760500000000000398e+00 1.905860000000000110e+00 8.340370000000000061e+00 3.310789999999999900e+00 1.417589999999999906e+00 9.485780000000000101e+00 8.861290000000000333e+00 1.180479999999999974e+00 3.415389999999999926e+00 1.452830000000000066e+00 1.950809999999999933e+00 3.968620000000000037e+00 7.225500000000000256e+00 1.577690000000000037e+00 8.833330000000000126e+00 8.238100000000000422e-01 1.797649999999999970e+00 9.369049999999999656e+00 6.294940000000000424e+00 3.788660000000000139e+00 3.794810000000000016e+00 1.198819999999999997e+00 4.182620000000000005e+00 6.462699999999999889e+00 6.924529999999999852e+00 3.807589999999999808e+00 9.141640000000000654e+00 6.983700000000000463e-01 4.144350000000000200e+00 9.353160000000000807e+00 6.264820000000000277e+00