-1.485707000000000111e+00 -4.754109999999999725e-01 2.570199999999999915e-02 -3.212835999999999803e+00 -8.029410000000000158e-01 -9.936070000000000180e-01 7.638340000000000130e-01 -1.458015000000000061e+00 1.916673999999999989e+00 1.329898999999999942e+00 2.958404999999999951e+00 1.738393999999999995e+00 -1.339798999999999962e+00 1.053209000000000062e+00 2.251812000000000147e+00 -1.060350000000000042e-01 -6.010269999999999779e-01 -1.138395000000000046e+00 -8.752100000000000157e-02 -4.772060000000000191e-01 5.354579999999999895e-01 1.167513999999999941e+00 2.323800000000000032e-01 3.759799999999999809e-01 5.828099999999999947e-02 5.159110000000000085e-01 6.306429999999999536e-01 -2.354337000000000124e+00 8.438099999999999490e-01 7.807469999999999688e-01 4.071940000000000004e-01 5.918020000000000502e-01 -1.033465000000000078e+00 -1.309760000000000035e+00 -6.163939999999999975e-01 -1.062446999999999919e+00 1.872165000000000079e+00 6.713540000000000063e-01 2.361459999999999948e-01 -5.685740000000000238e-01 8.689320000000000377e-01 1.095040000000000013e+00 6.197789999999999688e-01 -1.665562999999999905e+00 -1.585579000000000072e+00 1.197880999999999974e+00 -1.582934000000000063e+00 -8.631299999999999528e-01 9.819510000000000183e-01 -4.139260000000000161e-01 -1.542961000000000027e+00 2.935712000000000099e+00 -1.362980000000000080e+00 5.055110000000000436e-01 -1.046986999999999890e+00 6.104889999999999484e-01 -1.034311999999999898e+00 1.033004000000000033e+00 -1.864902000000000060e+00 -9.033780000000000143e-01 -6.143380000000000507e-01 -4.555100000000000260e-01 -2.394650000000000112e-01 -1.965399999999999925e-01 1.207465000000000011e+00 1.747110000000000052e-01 4.248000000000000040e-03 -1.694776000000000060e+00 -1.313336999999999977e+00 -1.161335000000000006e+00 -1.348151000000000099e+00 6.587420000000000497e-01 4.037199999999999817e-02 -5.987900000000000444e-01 -1.307044000000000095e+00 -9.747019999999999573e-01 3.444590000000000152e-01 -6.680800000000000627e-02 -2.100795000000000190e+00 -2.953250000000000042e-01 -5.748440000000000216e-01 -1.129485000000000072e+00 3.233070000000000110e-01 1.861680000000000001e-01 -4.446900000000000158e-02 -3.964570000000000038e-01 -1.355159999999999920e+00 1.367777000000000021e+00 5.421839999999999993e-01 -1.436355000000000048e+00 -1.445121000000000100e+00 -2.048325000000000173e+00 2.295767999999999809e+00 -6.157299999999999995e-01 -4.082069999999999865e-01 -2.466664999999999885e+00 4.483650000000000135e-01 2.777699999999999961e-02 -1.705562999999999940e+00 -2.542030000000000123e-01 -5.315839999999999455e-01 -1.789129999999999887e-01 1.058451999999999948e+00 1.986628000000000061e+00 1.148520999999999903e+00 -5.500909999999999966e-01 -4.341500000000000220e-02 6.409960000000000102e-01 1.049530000000000074e+00 4.939819999999999767e-01 2.785372000000000181e+00 9.049869999999999859e-01 1.761803000000000008e+00 1.144479999999999942e+00 -9.847749999999999559e-01 2.133065000000000211e+00 -7.974280000000000257e-01 -1.386811000000000016e+00 1.047285000000000021e+00 -1.514719999999999955e-01 -8.555439999999999712e-01 1.969470999999999972e+00 1.114938999999999902e+00 6.582000000000000350e-02 -3.906189999999999940e-01 -1.954477999999999938e+00 1.163030000000000008e+00 -2.158710999999999824e+00 -1.901672999999999947e+00 6.561249999999999583e-01 -9.345599999999999741e-02 6.616980000000000084e-01 -9.227340000000000542e-01 -2.569672000000000178e+00 5.454900000000000027e-02 -1.796879999999999866e-01 -1.032041999999999904e+00 1.104308000000000067e+00 -5.151590000000000336e-01 1.820632000000000028e+00 1.559949999999999948e-01 -3.339809999999999723e-01 2.130768999999999913e+00 -1.359809999999999908e-01 6.691249999999999698e-01 -2.395693000000000072e+00 8.585420000000000273e-01 6.363739999999999952e-01 5.270420000000000105e-01 -2.030369999999999953e-01 4.463300000000000045e-01 -9.058150000000000368e-01 -7.945510000000000073e-01 -1.220304000000000055e+00 -1.034920000000000007e-01 -1.945149999999999935e-01 1.253627000000000047e+00 1.501649999999999929e+00 -1.698588999999999904e+00 4.387030000000000096e-01 1.305728000000000000e+00 -1.703419999999999934e-01 1.833218000000000014e+00 -1.259338000000000068e+00 2.173807000000000045e+00 -1.379669000000000034e+00 1.614231999999999889e+00 1.667456999999999967e+00 -5.457840000000000469e-01 -3.877160000000000051e-01 1.228941000000000061e+00 -1.180752000000000024e+00 1.034629999999999939e+00 -5.632639999999999869e-01 8.571189999999999642e-01 -1.558421999999999974e+00 -1.070341999999999905e+00 9.060540000000000260e-01 8.479599999999999638e-02 -5.327140000000000208e-01 -1.137396999999999991e+00 -1.395248000000000044e+00 1.399549999999999961e-01 3.163949999999999818e-01 -9.104399999999999993e-02 -2.330589999999999884e-01 -2.828180000000000138e-01 1.305639999999999912e+00 8.616270000000000318e-01 -7.542210000000000303e-01 -6.582259999999999778e-01 -2.334170000000000134e-01 1.287878999999999996e+00 9.449499999999999567e-02 2.963799999999999768e-01 9.250439999999999774e-01 -1.339663000000000048e+00 -1.600635999999999948e+00 2.079326000000000008e+00 -1.357293000000000083e+00 3.714810000000000056e-01 8.212239999999999540e-01 8.434960000000000235e-01 -2.892440000000000011e-01 7.695200000000000651e-02 8.747580000000000355e-01 2.792399999999999882e-01 -7.141889999999999628e-01 -6.285349999999999548e-01 -3.203679999999999861e-01 5.697609999999999619e-01 3.602529999999999899e-01 1.496318000000000037e+00 9.375339999999999785e-01 1.334740999999999955e+00 -4.267870000000000275e-01 -2.699869999999999770e-01 1.104260000000000019e+00 -6.572059999999999569e-01 4.322940000000000116e-01 -6.825590000000000268e-01 -7.329729999999999857e-01 -1.616549999999999931e-01 3.542715999999999976e+00 1.363828999999999958e+00 4.113069999999999782e-01 1.027639999999999942e-01 2.090200000000000044e-02 -8.232660000000000533e-01 5.154769999999999630e-01 1.322111999999999954e+00 1.620000000000000051e-01 1.425975999999999910e+00 2.028326999999999991e+00 4.868379999999999930e-01 -7.207729999999999970e-01 5.774860000000000548e-01 -5.461019999999999763e-01 -5.969550000000000134e-01 4.224029999999999729e-01 -3.631420000000000203e-01 -6.607530000000000348e-01 -1.949179999999999913e+00 1.364519000000000037e+00 -6.160419999999999785e-01 1.758820000000000106e-01 4.925649999999999751e-01 2.137370000000000103e-01 1.399518999999999957e+00 -6.329029999999999934e-01 3.524939999999999740e-01 -7.975259999999999572e-01 2.304193999999999853e+00 -6.485450000000000381e-01 -1.106295999999999946e+00 1.990429999999999977e-01 -1.278771000000000102e+00 1.701870000000000049e-01 -1.483299999999999896e-01 1.798420000000000019e-01 9.497219999999999551e-01 -9.314670000000000449e-01 1.110864000000000074e+00 1.562500000000000000e+00 -5.891300000000000425e-01 3.557020000000000182e-01 -1.495889999999999942e+00 -1.024947999999999970e+00 -1.622449999999999948e+00 7.715859999999999941e-01 -1.624481000000000064e+00 -5.127819999999999601e-01 -9.899569999999999759e-01 1.074254999999999960e+00 8.860419999999999963e-01 -5.542030000000000012e-01
4.390643999999999991e+00 -7.650800000000000656e-02 -3.020207000000000086e+00 -2.261066000000000020e+00 -4.919500000000000262e-02 1.858720000000000094e-01 5.613879999999999981e-01 3.220060000000000144e-01 1.151719999999999966e-01 -7.871300000000000519e-02 1.030326999999999993e+00 -1.419386999999999954e+00 -2.449775999999999954e+00 3.182837999999999834e+00 -1.113264999999999949e+00 -5.432069999999999954e-01 2.795869999999999744e-01 1.872076000000000073e+00 6.097979999999999512e-01 -2.812065000000000037e+00 3.790325999999999862e+00 3.387513999999999914e+00 -1.740593000000000057e+00 7.494309999999999583e-01 1.977948000000000039e+00 4.159131000000000355e+00 -1.551557999999999993e+00 1.500606000000000106e+00 -1.909889999999999921e-01 -4.921558000000000099e+00 9.791900000000000603e-02 6.100699999999999873e-02 -3.268820999999999977e+00 -2.501900000000000013e+00 -5.345180000000000486e-01 1.892063999999999968e+00 -1.543249999999999900e-01 -8.941769999999999996e-01 -2.836940000000000017e-01 -1.264563000000000104e+00 -1.191761999999999988e+00 -3.468180000000000152e-01 1.226008999999999904e+00 3.403100000000000014e-01 -4.961849999999999872e-01 3.197699999999999848e-02 -1.238539000000000057e+00 -2.785988999999999827e+00 -2.560928999999999789e+00 2.813166999999999973e+00 1.294303999999999899e+00 2.494339999999999891e-01 2.977159999999999807e-01 9.561199999999999699e-01 9.826529999999999987e-01 5.757160000000000055e-01 -1.315112999999999976e+00 -1.304840000000000000e+00 -5.528999999999999887e-02 -5.475269999999999859e-01 2.684076999999999824e+00 -2.888917000000000179e+00 2.292780000000000096e-01 2.612642999999999827e+00 3.104318999999999829e+00 7.711750000000000549e-01 3.471339999999999981e-01 -1.201318000000000108e+00 1.490915999999999908e+00 5.545269999999999921e-01 -5.294210000000000305e-01 -6.545330000000000314e-01 -3.061722000000000055e+00 -9.987489999999999979e-01 -3.134637000000000118e+00 -5.610529999999999795e+00 -5.651505000000000223e+00 -5.511788000000000132e+00 -3.714437000000000211e+00 -2.715451999999999977e+00 7.679240000000000510e-01 -3.486658999999999953e+00 4.441390000000000060e-01 -4.017749999999999932e-01 2.142456000000000138e+00 -3.942200000000000149e-01 -8.265689999999999982e-01 -2.873378000000000210e+00 -1.447321999999999997e+00 3.536747000000000085e+00 1.832927999999999891e+00 2.711313000000000084e+00 4.449409999999999754e-01 -7.501700000000000035e-01 1.492652000000000090e+00 -1.861788999999999916e+00 -1.353998000000000035e+00 -8.437160000000000215e-01 1.356090000000000073e-01 -2.339691999999999883e+00 -3.173528999999999822e+00 3.280529000000000028e+00 9.978900000000000547e-01 1.125574999999999992e+00 -2.071480000000000210e+00 -7.017250000000000432e-01 -5.275910000000000322e-01 -3.854630000000000001e-01 2.641732000000000191e+00 -1.141189000000000009e+00 1.651840999999999893e+00 2.559781000000000084e+00 -1.254113000000000033e+00 -3.370690000000000075e-01 4.197150000000000047e-01 5.227589999999999737e-01 -6.292870000000000408e-01 -7.033470000000000555e-01 4.696190000000000087e-01 -5.200949999999999740e-01 1.233719000000000010e+00 -2.999538999999999955e+00 9.218920000000000448e-01 7.730390000000000317e-01 2.401051999999999964e+00 -1.730863999999999958e+00 -1.237716999999999956e+00 1.126654999999999962e+00 4.812080000000000246e-01 2.756499999999999950e+00 -5.362999999999999989e-01 1.915724999999999900e+00 3.561004000000000058e+00 -4.544940000000000091e-01 7.285110000000000197e-01 7.948399999999999910e-01 -2.941099999999999964e-02 1.097007000000000065e+00 1.294410999999999978e+00 4.509319999999999995e-01 4.385209999999999941e-01 1.113347000000000087e+00 1.436118000000000006e+00 4.800360000000000182e-01 -8.212329999999999908e-01 -1.047744000000000009e+00 4.362550000000000039e-01 -4.957960000000000145e-01 2.065710999999999853e+00 2.707959999999999812e-01 -1.205235000000000056e+00 -7.232009999999999827e-01 1.556140000000000023e-01 1.942744999999999944e+00 3.602339999999999987e-01 -1.463635999999999937e+00 1.547795000000000032e+00 6.591770000000000129e-01 -7.354950000000000099e-01 1.387043999999999944e+00 1.178074999999999983e+00 8.346839999999999815e-01 -3.781787000000000010e+00 -1.523708000000000062e+00 -1.633100000000000107e-01 2.217689000000000021e+00 -4.504969999999999808e-01 1.092810000000000031e-01 -2.074472000000000094e+00 1.827687000000000062e+00 6.286209999999999853e-01 -2.653434999999999988e+00 -5.717830000000000412e-01 -1.483586000000000071e+00 -6.263419999999999543e-01 9.536499999999999977e-01 9.802870000000000195e-01 3.443706999999999852e+00 2.476169000000000064e+00 -2.781932999999999989e+00 -2.789619999999999878e-01 -5.658860000000000001e-01 -1.380125000000000046e+00 -1.153270999999999935e+00 -2.523029999999999995e-01 -1.887256000000000045e+00 -9.772819999999999840e-01 1.409179999999999877e-01 1.262996999999999925e+00 1.389302000000000037e+00 -5.404849999999999932e-01 3.309830000000000272e-01 -2.998813000000000173e+00 -3.096329999999999916e-01 -2.700319999999999943e-01 -1.407199999999999944e-02 -4.662060000000000093e-01 -6.117209999999999592e-01 4.567289999999999961e-01 1.256278999999999924e+00 1.868519999999999903e-01 3.860700000000000243e-02 7.099800000000000555e-02 -2.465453999999999812e+00 -1.675351000000000035e+00 1.528955000000000064e+00 1.176968999999999932e+00 -1.769207999999999892e+00 7.366829999999999767e-01 1.938679000000000041e+00 -1.763975999999999988e+00 6.290480000000000516e-01 -2.042809999999999904e-01 -2.120319999999999983e-01 1.909175999999999984e+00 3.565586000000000144e+00 3.123929999999999763e-01 -4.488789999999999725e-01 -1.221929999999999961e+00 1.258035999999999932e+00 -1.624301999999999913e+00 -2.237879999999999869e-01 7.400640000000000551e-01 2.444789000000000101e+00 5.022240000000000038e-01 1.299214000000000091e+00 2.697375000000000078e+00 8.682269999999999710e-01 3.808239999999999958e-01 -1.580478999999999967e+00 -4.292400000000000104e-01 -1.239036000000000026e+00 3.146399999999999753e-01 1.012469000000000063e+00 8.893189999999999706e-01 2.705139999999999767e-01 -3.925069999999999948e-01 -2.984516999999999864e+00 -2.386299999999999866e+00 1.171799000000000035e+00 -1.352824000000000026e+00 3.286951999999999874e+00 3.958102999999999927e+00 4.062136999999999887e+00 7.039363999999999955e+00 4.264979000000000298e+00 8.935570000000000457e-01 2.459585000000000132e+00 -1.681243999999999961e+00 -9.631210000000000049e-01 1.550890000000000102e+00 1.597607999999999917e+00 6.545199999999999907e-01 -3.779624999999999790e+00 8.975210000000000132e-01 1.855135999999999896e+00 -8.090960000000000374e-01 -6.396490000000000231e-01 -1.054877000000000065e+00 -2.138447999999999904e+00 -2.053200000000000025e-01 -1.351976999999999984e+00 -1.412300000000000014e-02 -2.589969999999999772e-01 1.727538000000000018e+00 -2.313470999999999833e+00 -1.429979999999999862e-01 7.345209999999999795e-01 -2.092586999999999975e+00 -1.204415999999999931e+00 -1.318689000000000000e+00 -1.270688999999999957e+00 1.562389000000000028e+00 1.152492999999999990e+00 -3.723936000000000135e+00 2.042247000000000146e+00
-7.652259999999999618e-01 -1.814267000000000074e+00 -2.123399999999999940e-02 8.543180000000000218e-01 -3.117579999999999796e-01 -1.894419000000000075e+00 -1.555538000000000087e+00 -7.323269999999999502e-01 3.020896000000000026e+00 -1.991881000000000013e+00 3.890419999999999989e-01 -1.677937000000000012e+00 -3.101881999999999806e+00 1.194946000000000064e+00 2.108510000000000106e-01 -3.393760000000000110e-01 -8.504559999999999897e-01 1.953327999999999953e+00 -1.137790000000000079e+00 -9.300770000000000426e-01 -1.787247000000000030e+00 8.516669999999999519e-01 2.606637000000000093e+00 -8.047320000000000029e-01 -7.470599999999999463e-01 2.123220000000000107e-01 -1.587588999999999917e+00 2.597897999999999818e+00 5.406000000000000215e-03 6.510559999999999681e-01 -5.951159999999999783e-01 -2.425867000000000218e+00 -5.518100000000000227e-01 -9.804899999999999727e-01 6.725839999999999597e-01 1.288877000000000050e+00 1.464191999999999938e+00 -4.983420000000000072e-01 -1.569145999999999930e+00 -2.747040000000000037e-01 -8.680109999999999770e-01 1.475994999999999946e+00 4.673919999999999741e-01 7.620919999999999916e-01 -6.340719999999999690e-01 1.323590000000000044e+00 1.518658999999999981e+00 -2.379296000000000078e+00 -4.972289999999999766e-01 1.159620000000000095e+00 5.525600000000000511e-01 1.013778999999999986e+00 -4.118287999999999727e+00 -3.539300000000000085e-02 6.917969999999999953e-01 -1.305898000000000003e+00 1.887864999999999904e+00 -3.016070000000000140e-01 -9.098490000000000189e-01 -6.049719999999999542e-01 1.663602000000000025e+00 5.791450000000000209e-01 4.422999999999999848e-03 1.098695999999999895e+00 1.899091000000000085e+00 -3.901319999999999788e-01 3.995029999999999970e-01 -2.169629999999999892e-01 4.430983000000000338e+00 9.890670000000000295e-01 -3.284460000000000157e-01 6.357329999999999925e-01 -2.652141999999999999e+00 4.667439999999999922e-01 1.705686000000000035e+00 -1.653432000000000013e+00 -1.169205999999999968e+00 2.647520999999999791e+00 -9.175360000000000182e-01 1.039252999999999982e+00 2.171720999999999790e+00 1.483019999999999894e-01 7.667799999999999616e-02 -2.588949999999999863e-01 1.878139999999999921e+00 1.565639999999999921e+00 -1.059889999999999999e-01 -5.633489999999999887e-01 2.870999999999999854e-03 -1.171496000000000093e+00 1.813064999999999927e+00 -9.485010000000000385e-01 -1.167211999999999916e+00 -9.880160000000000053e-01 -1.678722999999999965e+00 -2.504719999999999724e-01 8.133829999999999671e-01 -2.928011999999999837e+00 -2.007397000000000098e+00 3.172679999999999945e-01 6.442179999999999573e-01 -1.421099999999999863e-01 4.355129999999999835e-01 3.899599999999999733e-01 -6.534619999999999873e-01 1.249138000000000082e+00 1.052626999999999979e+00 2.136115999999999904e+00 -1.802238000000000007e+00 1.121175999999999950e+00 -1.005260999999999960e+00 -1.737956999999999974e+00 -3.881720000000000170e-01 9.104010000000000158e-01 -5.631669999999999732e-01 -3.845970000000000222e-01 -1.181850999999999985e+00 1.001659999999999995e+00 2.434700000000000059e-02 2.187091000000000118e+00 -9.923720000000000319e-01 -1.603431000000000051e+00 -1.753411999999999971e+00 -6.416779999999999706e-01 7.858340000000000325e-01 2.179761000000000060e+00 -6.115840000000000165e-01 -3.971299999999999830e-02 -1.181175000000000086e+00 -9.270599999999999674e-02 1.129080000000000084e+00 -4.816200000000000342e-02 9.952180000000000470e-01 -2.041419999999999901e-01 8.121019999999999905e-01 2.301410000000000122e-01 1.629366000000000092e+00 -2.236708999999999836e+00 1.664195000000000091e+00 3.931915000000000049e+00 -2.460687000000000069e+00 -1.949302000000000090e+00 -8.952299999999999702e-01 -4.859399999999999831e-02 9.009000000000000341e-02 -1.581422000000000105e+00 -5.750999999999999862e-02 -3.932889999999999997e-01 1.487921000000000049e+00 -1.220496999999999943e+00 8.077119999999999855e-01 -8.315810000000000146e-01 -3.364400000000000029e-02 8.282000000000000473e-01 -2.383920999999999957e+00 1.024726000000000026e+00 7.830139999999999878e-01 1.569039999999999990e+00 -1.837169999999999914e-01 -1.356735000000000024e+00 1.360359000000000096e+00 1.637804999999999955e+00 9.535660000000000247e-01 -9.143710000000000448e-01 -5.151040000000000063e-01 6.561900000000000510e-01 4.998859999999999970e-01 1.426018999999999926e+00 2.402400000000000091e-01 3.184679999999999733e-01 9.311690000000000245e-01 4.109820000000000140e-01 -1.992700000000000027e-01 2.949769999999999892e-01 -1.331090000000000051e-01 7.816130000000000022e-01 -7.841789999999999594e-01 1.569790000000000074e-01 -2.551789999999999892e-01 -4.348139999999999783e-01 -7.495279999999999720e-01 -6.323440000000000172e-01 -8.443279999999999674e-01 9.884500000000000508e-01 1.522845999999999922e+00 -1.692563000000000040e+00 -4.265610000000000235e-01 6.204250000000000043e-01 -1.033214000000000077e+00 2.926270000000000260e-01 8.103000000000000827e-03 5.051400000000000334e-01 8.760980000000000434e-01 8.720259999999999678e-01 -1.344210000000000127e-01 -3.182670000000000221e-01 1.739509999999999945e-01 1.169467999999999952e+00 -1.238010999999999973e+00 1.657019999999999882e-01 -8.408820000000000183e-01 -8.870329999999999604e-01 -1.296839000000000075e+00 -1.204461999999999922e+00 -2.811402999999999874e+00 -7.186209999999999543e-01 -1.950841999999999965e+00 4.779180000000000095e-01 2.953140000000000209e-01 1.985929999999999918e-01 -5.853159999999999474e-01 3.034899999999999820e-01 -1.403899000000000008e+00 -8.197990000000000554e-01 -1.880350000000000077e-01 -2.055162000000000155e+00 -3.021429999999999949e-01 8.793689999999999563e-01 4.572800000000000198e-01 5.855400000000000188e-02 -6.245399999999999840e-01 -3.205700000000000216e-02 -3.359360000000000124e-01 1.647440999999999933e+00 1.581312999999999969e+00 1.626868999999999899e+00 -1.749913999999999970e+00 -1.390975000000000072e+00 -3.716010000000000146e-01 -7.802390000000000159e-01 8.213479999999999670e-01 -2.958959999999999924e-01 2.213539999999999952e-01 9.852900000000000547e-02 -1.061010999999999926e+00 -5.891450000000000298e-01 8.609409999999999563e-01 1.461679999999999924e-01 9.792619999999999658e-01 1.684674999999999923e+00 4.997780000000000000e-01 -3.014809999999999990e-01 -5.011409999999999476e-01 -4.103680000000000105e-01 -1.826000000000000123e-01 -1.008450000000000041e-01 9.539450000000000429e-01 9.239640000000000075e-01 9.225449999999999484e-01 -1.464239999999999986e-01 1.583422000000000107e+00 7.628909999999999858e-01 9.129429999999999490e-01 -1.254532999999999898e+00 -1.013122000000000078e+00 6.680399999999999672e-01 -1.794739999999999946e-01 1.443942999999999977e+00 1.055930000000000063e-01 1.274416999999999911e+00 -9.064379999999999660e-01 4.614789999999999726e-01 -5.305210000000000203e-01 9.481199999999999628e-01 5.259420000000000206e-01 -2.383999999999999835e-03 -2.352269999999999917e-01 -7.348050000000000415e-01 -1.740023000000000097e+00 1.126095000000000068e+00 1.964695000000000080e+00 7.161210000000000075e-01 -1.246280000000000027e-01 1.383018999999999998e+00 -5.770319999999999894e-01 -4.540069999999999939e-01
-9.609229999999999716e-01 -4.279769999999999963e-01 -1.240550000000000042e+00 -8.370199999999999863e-02 -4.027841999999999700e+00 6.232700000000000046e-02 -1.210067999999999921e+00 -8.479889999999999928e-01 -3.390790000000000193e-01 4.453635000000000232e+00 9.953859999999999930e-01 -3.096983999999999959e+00 -1.408887999999999918e+00 2.756384000000000167e+00 -2.350614000000000203e+00 -5.540712000000000081e+00 3.455334999999999823e+00 -3.905861999999999945e+00 2.387281999999999904e+00 1.624819999999999875e-01 4.154734999999999623e+00 -1.716468000000000105e+00 2.217035000000000089e+00 -2.949597999999999942e+00 4.349919999999999898e-01 1.669079999999999897e+00 1.904813000000000089e+00 -1.865831000000000017e+00 1.743905000000000038e+00 9.981419999999999737e-01 -1.334794000000000036e+00 -1.351590999999999987e+00 2.180718000000000156e+00 -1.610668999999999906e+00 2.369123000000000090e+00 -1.103472999999999926e+00 2.064344000000000179e+00 -1.613399999999999945e+00 2.048491999999999980e+00 1.635474000000000094e+00 -2.834780999999999995e+00 -2.659336000000000144e+00 -2.533844000000000207e+00 -2.869835999999999832e+00 -2.685043999999999986e+00 -5.962399999999999922e-01 5.423400000000000443e-01 2.059747999999999912e+00 3.140629999999999811e-01 1.148399999999999942e-02 -1.998189999999999966e-01 -1.697567000000000048e+00 3.711969999999999992e-01 -6.894249999999999545e-01 -3.101900000000000213e-01 4.790030000000000121e-01 1.703313000000000077e+00 8.537609999999999921e-01 1.151121000000000061e+00 -1.344689999999999941e+00 -1.036369000000000096e+00 7.183070000000000288e-01 1.532475000000000032e+00 -7.597650000000000237e-01 -3.379389999999999894e-01 -2.103937000000000168e+00 2.602386999999999784e+00 -2.520525999999999822e+00 3.387423000000000073e+00 2.707080000000000042e-01 -2.378740000000000021e-01 -6.008594000000000435e+00 3.356080000000000174e-01 -3.340929999999999733e-01 -2.721954000000000207e+00 -4.267731999999999637e+00 -6.380850000000000133e-01 4.027064000000000199e+00 -1.143486000000000002e+00 2.764240000000000030e-01 1.596174999999999899e+00 -1.804408000000000012e+00 1.438166000000000055e+00 1.406946999999999948e+00 2.785177000000000014e+00 -3.177017999999999898e+00 -3.399465000000000181e+00 9.642260000000000275e-01 2.274217999999999851e+00 1.795849999999999946e-01 -2.779159999999999964e-01 3.013339999999999907e-01 2.737274000000000207e+00 1.246710999999999903e+00 2.568620000000000125e+00 -9.013609999999999678e-01 -6.429810000000000247e-01 -7.061699999999999922e-02 -1.804886999999999908e+00 -1.768990000000000007e-01 -3.252729999999999788e-01 -2.076874999999999805e+00 -6.415619999999999656e-01 8.309760000000000479e-01 -4.169400000000000189e-02 -1.685359999999999914e-01 -2.587410000000000210e+00 -6.811829999999999830e-01 -1.954069999999999974e-01 -1.524369999999999892e-01 -5.307220000000000271e-01 -1.240045000000000064e+00 5.486210000000000253e-01 -1.450485000000000024e+00 -1.790100000000000025e-02 -1.672630000000000061e+00 -8.407000000000000028e-01 2.074625999999999859e+00 -6.631029999999999980e-01 1.641710000000000003e+00 -3.632980000000000098e-01 1.360250000000000070e-01 -8.051409999999999956e-01 -1.386025000000000063e+00 7.817049999999999832e-01 2.597999999999999754e-01 9.058270000000000488e-01 -5.177059999999999995e-01 8.424070000000000169e-01 2.867865000000000109e+00 1.430809999999999915e+00 -4.183709999999999929e-01 4.084369999999999945e-01 1.644228999999999941e+00 -1.468482000000000065e+00 -3.716559999999999864e-01 4.480930000000000191e-01 -9.422760000000000025e-01 2.005869999999999875e-01 -3.171891000000000016e+00 -1.603500000000000064e-02 7.306120000000000392e-01 1.835058000000000078e+00 -1.677983999999999920e+00 7.271509999999999918e-01 1.777153999999999900e+00 -1.330500000000000016e-01 -6.059660000000000046e-01 4.410390000000000144e-01 4.965632000000000268e+00 1.760509000000000102e+00 1.175548000000000037e+00 -1.645968000000000098e+00 3.066545000000000076e+00 -3.029228999999999949e+00 3.752889999999999837e+00 -5.999489999999999545e-01 7.804039999999999866e-01 6.988630000000000120e-01 -4.364910000000000179e-01 1.819179000000000102e+00 2.735278000000000098e+00 -6.797809999999999686e-01 -7.798859999999999681e-01 -6.049299999999999816e-02 9.982870000000000354e-01 -2.459780000000000022e-01 1.970531999999999950e+00 2.648477000000000192e+00 -1.603155000000000108e+00 -2.493168999999999969e+00 4.100909999999999833e-01 1.040974000000000066e+00 7.446999999999999627e-03 1.535898999999999903e+00 3.272249999999999881e-01 -1.332497999999999960e+00 -2.272790000000000088e+00 -2.808231000000000144e+00 1.517430999999999974e+00 -3.860580000000000123e-01 3.067079999999999806e-01 6.798159999999999759e-01 -2.701009999999999800e-01 -1.813593000000000011e+00 2.145693000000000072e+00 -8.318619999999999903e-01 -3.165763000000000105e+00 9.407980000000000231e-01 -3.331790000000000029e-01 6.498700000000000310e-02 5.661450000000000093e-01 2.119228000000000112e+00 3.002260000000000151e+00 9.575010000000000465e-01 -1.039311000000000096e+00 1.735692000000000013e+00 -2.576553000000000093e+00 2.759460999999999942e+00 -1.133299999999999932e-02 -1.964919000000000082e+00 -1.836899999999999991e-02 1.671202000000000076e+00 5.920600000000000307e-01 -6.081339999999999524e-01 -1.843692000000000109e+00 2.064130000000000131e-01 1.359750000000000125e-01 4.218040000000000123e-01 1.880384000000000055e+00 -3.448799999999999782e-02 -2.684779999999999944e+00 -1.960618999999999890e+00 7.552809999999999802e-01 5.774900000000000172e-02 2.613049000000000177e+00 1.564001999999999892e+00 3.322100000000000053e-01 -1.355518999999999918e+00 -6.913629999999999498e-01 -5.938470000000000137e-01 9.373270000000000213e-01 -2.860829999999999762e-01 1.084778999999999938e+00 -2.379544999999999799e+00 -1.611517000000000088e+00 6.324469999999999814e-01 7.508399999999999797e-02 1.126074000000000019e+00 1.497069999999999901e+00 -1.810975000000000001e+00 5.922765000000000057e+00 -3.329994000000000121e+00 1.058904999999999985e+00 2.243100000000000094e-01 2.866645999999999805e+00 -6.098869999999999569e-01 -3.273880000000000123e-01 -3.182878000000000096e+00 -1.074839999999999962e-01 -2.144770000000000010e-01 1.302556000000000047e+00 -2.721600000000000130e-01 -1.908593999999999902e+00 -1.922724000000000100e+00 2.174907000000000146e+00 -8.704699999999999938e-02 1.192999999999999963e-02 6.386490000000000222e-01 -2.194691999999999865e+00 1.346673999999999927e+00 2.473535000000000039e+00 1.862144999999999939e+00 -9.875799999999999856e-02 1.005427999999999988e+00 -2.249502000000000113e+00 1.866438000000000041e+00 1.993670000000000053e+00 -3.348468000000000000e+00 1.079296000000000033e+00 1.453740000000000032e+00 -1.064490000000000020e-01 -6.034249999999999892e-01 -8.029110000000000413e-01 3.319999999999999926e-04 1.048295999999999895e+00 5.069139999999999757e-01 -1.199548000000000059e+00 -1.281789999999999985e+00 5.155760000000000343e-01 2.581885000000000208e+00 1.751330000000000109e-01 -8.663060000000000205e-01 -2.925300000000000122e-02 -1.642789999999999973e+00 -9.601399999999999935e-01