1.030084770799999916e+01 0.000000000000000000e+00 0.000000000000000000e+00 3.617020900000000178e-02 1.075577579399999983e+01 0.000000000000000000e+00 -4.543720400000000187e-02 -4.942487200000000164e-02 1.031198039300000069e+01
1.030686910600000061e+01 0.000000000000000000e+00 0.000000000000000000e+00 3.619135200000000302e-02 1.076206312200000070e+01 0.000000000000000000e+00 -4.546376500000000320e-02 -4.945376299999999781e-02 1.031800829900000060e+01
1.021880789599999950e+01 0.000000000000000000e+00 0.000000000000000000e+00 3.588213600000000197e-02 1.067011276400000064e+01 0.000000000000000000e+00 -4.507532599999999889e-02 -4.903123399999999993e-02 1.022985191599999943e+01
1.039507308299999977e+01 0.000000000000000000e+00 0.000000000000000000e+00 3.650106999999999657e-02 1.085416255200000002e+01 0.000000000000000000e+00 -4.585283400000000203e-02 -4.987697800000000237e-02 1.040630760300000013e+01
1.041682812900000066e+01 0.000000000000000000e+00 0.000000000000000000e+00 3.657745999999999914e-02 1.087687839099999998e+01 0.000000000000000000e+00 -4.594879600000000008e-02 -4.998136200000000140e-02 1.042808616099999952e+01
1.038827139600000038e+01 0.000000000000000000e+00 0.000000000000000000e+00 3.647718700000000119e-02 1.084706047399999918e+01 0.000000000000000000e+00 -4.582283200000000084e-02 -4.984434299999999929e-02 1.039949856500000003e+01
1.035853107500000014e+01 0.000000000000000000e+00 0.000000000000000000e+00 3.637275699999999862e-02 1.081600669700000061e+01 0.000000000000000000e+00 -4.569164700000000190e-02 -4.970164500000000263e-02 1.036972610199999956e+01
1.028925723300000072e+01 0.000000000000000000e+00 0.000000000000000000e+00 3.612950999999999663e-02 1.074367343599999991e+01 0.000000000000000000e+00 -4.538607900000000278e-02 -4.936925899999999867e-02 1.030037739199999969e+01
1.039070994299999917e+01 0.000000000000000000e+00 0.000000000000000000e+00 3.648574999999999735e-02 1.084960671700000034e+01 0.000000000000000000e+00 -4.583358800000000149e-02 -4.985604300000000266e-02 1.040193974800000021e+01
1.028967254600000025e+01 0.000000000000000000e+00 0.000000000000000000e+00 3.613096899999999889e-02 1.074410708999999997e+01 0.000000000000000000e+00 -4.538791100000000300e-02 -4.937125199999999742e-02 1.030079315400000084e+01
1.020823664599999958e+01 0.000000000000000000e+00 0.000000000000000000e+00 3.584501600000000038e-02 1.065907464400000038e+01 0.000000000000000000e+00 -4.502869600000000000e-02 -4.898051099999999741e-02 1.021926924199999931e+01
1.013971001200000011e+01 0.000000000000000000e+00 0.000000000000000000e+00 3.560439299999999807e-02 1.058752158999999970e+01 0.000000000000000000e+00 -4.472642400000000074e-02 -4.865171100000000026e-02 1.015066854800000051e+01
1.024263810899999960e+01 0.000000000000000000e+00 0.000000000000000000e+00 3.596581299999999926e-02 1.069499541799999953e+01 0.000000000000000000e+00 -4.518044100000000174e-02 -4.914557399999999743e-02 1.025370788400000066e+01
1.049622170099999963e+01 0.000000000000000000e+00 0.000000000000000000e+00 3.685624199999999739e-02 1.095977831199999919e+01 0.000000000000000000e+00 -4.629900199999999882e-02 -5.036230299999999716e-02 1.050756553799999971e+01
1.030094805999999963e+01 0.000000000000000000e+00 0.000000000000000000e+00 3.617056099999999691e-02 1.075588057799999930e+01 0.000000000000000000e+00 -4.543764699999999768e-02 -4.942535299999999826e-02 1.031208085399999952e+01
1.036867253199999972e+01 0.000000000000000000e+00 0.000000000000000000e+00 3.640836800000000345e-02 1.082659604300000034e+01 0.000000000000000000e+00 -4.573638099999999956e-02 -4.975030500000000161e-02 1.037987852000000011e+01
1.035849684099999912e+01 0.000000000000000000e+00 0.000000000000000000e+00 3.637263699999999933e-02 1.081597095100000061e+01 0.000000000000000000e+00 -4.569149599999999811e-02 -4.970147999999999927e-02 1.036969183100000080e+01
1.044730129000000041e+01 0.000000000000000000e+00 0.000000000000000000e+00 3.668446300000000049e-02 1.090869737200000067e+01 0.000000000000000000e+00 -4.608321399999999735e-02 -5.012757600000000008e-02 1.045859225599999931e+01
1.004398442599999974e+01 0.000000000000000000e+00 0.000000000000000000e+00 3.526826400000000056e-02 1.048756836599999964e+01 0.000000000000000000e+00 -4.430417600000000067e-02 -4.819240699999999961e-02 1.005483950600000043e+01
1.044218236799999922e+01 0.000000000000000000e+00 0.000000000000000000e+00 3.666648899999999656e-02 1.090335237799999923e+01 0.000000000000000000e+00 -4.606063400000000307e-02 -5.010301500000000074e-02 1.045346780200000048e+01
1.046163377200000077e+01 0.000000000000000000e+00 0.000000000000000000e+00 3.673479000000000327e-02 1.092366283600000010e+01 0.000000000000000000e+00 -4.614643400000000006e-02 -5.019634500000000332e-02 1.047294022800000057e+01
1.043042066499999976e+01 0.000000000000000000e+00 0.000000000000000000e+00 3.662518900000000244e-02 1.089107122899999958e+01 0.000000000000000000e+00 -4.600875299999999946e-02 -5.004658099999999971e-02 1.044169338700000083e+01
1.031466839199999974e+01 0.000000000000000000e+00 0.000000000000000000e+00 3.621873899999999979e-02 1.077020685699999980e+01 0.000000000000000000e+00 -4.549816799999999856e-02 -4.949118500000000004e-02 1.032581601499999913e+01
1.041919926599999968e+01 0.000000000000000000e+00 0.000000000000000000e+00 3.658578600000000208e-02 1.087935424600000012e+01 0.000000000000000000e+00 -4.595925499999999747e-02 -4.999273900000000131e-02 1.043045985999999914e+01
1.037594131200000014e+01 0.000000000000000000e+00 0.000000000000000000e+00 3.643389100000000297e-02 1.083418584200000012e+01 0.000000000000000000e+00 -4.576844399999999841e-02 -4.978518099999999780e-02 1.038715515500000031e+01
1.043672463699999930e+01 0.000000000000000000e+00 0.000000000000000000e+00 3.664732500000000143e-02 1.089765361100000085e+01 0.000000000000000000e+00 -4.603655999999999721e-02 -5.007682799999999684e-02 1.044800417199999920e+01
1.032192054699999950e+01 0.000000000000000000e+00 0.000000000000000000e+00 3.624420400000000209e-02 1.077777929700000037e+01 0.000000000000000000e+00 -4.553015700000000165e-02 -4.952598200000000311e-02 1.033307600700000073e+01
1.022822666299999916e+01 0.000000000000000000e+00 0.000000000000000000e+00 3.591520899999999655e-02 1.067994750299999929e+01 0.000000000000000000e+00 -4.511687200000000231e-02 -4.907642599999999938e-02 1.023928086299999940e+01
1.032906772499999981e+01 0.000000000000000000e+00 0.000000000000000000e+00 3.626929999999999737e-02 1.078524212399999982e+01 0.000000000000000000e+00 -4.556168299999999866e-02 -4.956027500000000086e-02 1.034023090900000064e+01
1.045622602399999934e+01 0.000000000000000000e+00 0.000000000000000000e+00 3.671580099999999930e-02 1.091801625899999983e+01 0.000000000000000000e+00 -4.612258100000000277e-02 -5.017039799999999800e-02 1.046752663500000047e+01
1.040706181200000024e+01 0.000000000000000000e+00 0.000000000000000000e+00 3.654316700000000140e-02 1.086668075300000069e+01 0.000000000000000000e+00 -4.590571699999999866e-02 -4.993450199999999867e-02 1.041830928899999975e+01
1.047444370200000030e+01 0.000000000000000000e+00 0.000000000000000000e+00 3.677977100000000277e-02 1.093703850500000030e+01 0.000000000000000000e+00 -4.620293899999999843e-02 -5.025780900000000051e-02 1.048576400199999981e+01
1.032252091400000005e+01 0.000000000000000000e+00 0.000000000000000000e+00 3.624631200000000275e-02 1.077840617799999912e+01 0.000000000000000000e+00 -4.553280500000000258e-02 -4.952886299999999936e-02 1.033367702299999991e+01
1.054828526100000019e+01 0.000000000000000000e+00 0.000000000000000000e+00 3.703905700000000023e-02 1.101414121300000026e+01 0.000000000000000000e+00 -4.652865500000000210e-02 -5.061211100000000129e-02 1.055968536499999999e+01
1.021691975000000063e+01 0.000000000000000000e+00 0.000000000000000000e+00 3.587550600000000145e-02 1.066814122999999981e+01 0.000000000000000000e+00 -4.506699699999999753e-02 -4.902217400000000169e-02 1.022796173000000053e+01
1.035537931000000000e+01 0.000000000000000000e+00 0.000000000000000000e+00 3.636169000000000207e-02 1.081271573699999955e+01 0.000000000000000000e+00 -4.567774399999999929e-02 -4.968652199999999686e-02 1.036657093100000004e+01
1.021725439699999960e+01 0.000000000000000000e+00 0.000000000000000000e+00 3.587668100000000054e-02 1.066849065699999954e+01 0.000000000000000000e+00 -4.506847299999999779e-02 -4.902378000000000291e-02 1.022829673899999925e+01
1.026491120400000057e+01 0.000000000000000000e+00 0.000000000000000000e+00 3.604402200000000195e-02 1.071825218500000076e+01 0.000000000000000000e+00 -4.527868799999999749e-02 -4.925244399999999939e-02 1.027600505100000028e+01
1.033296416099999959e+01 0.000000000000000000e+00 0.000000000000000000e+00 3.628298199999999835e-02 1.078931064200000023e+01 0.000000000000000000e+00 -4.557887099999999997e-02 -4.957897099999999946e-02 1.034413155700000075e+01
1.017911068499999949e+01 0.000000000000000000e+00 0.000000000000000000e+00 3.574274399999999990e-02 1.062866235999999986e+01 0.000000000000000000e+00 -4.490022099999999711e-02 -4.884076100000000337e-02 1.019011180300000063e+01
1.050260805799999986e+01 0.000000000000000000e+00 0.000000000000000000e+00 3.687866699999999692e-02 1.096644671600000009e+01 0.000000000000000000e+00 -4.632717299999999927e-02 -5.039294600000000096e-02 1.051395879700000080e+01
1.017557393100000063e+01 0.000000000000000000e+00 0.000000000000000000e+00 3.573032500000000028e-02 1.062496940900000020e+01 0.000000000000000000e+00 -4.488462000000000007e-02 -4.882379099999999833e-02 1.018657122699999995e+01
1.027468463800000009e+01 0.000000000000000000e+00 0.000000000000000000e+00 3.607834000000000041e-02 1.072845725500000036e+01 0.000000000000000000e+00 -4.532179900000000289e-02 -4.929933799999999811e-02 1.028578904799999982e+01
1.037794631699999925e+01 0.000000000000000000e+00 0.000000000000000000e+00 3.644093200000000227e-02 1.083627939600000012e+01 0.000000000000000000e+00 -4.577728799999999931e-02 -4.979480099999999965e-02 1.038916232699999931e+01
1.026900377800000008e+01 0.000000000000000000e+00 0.000000000000000000e+00 3.605839300000000108e-02 1.072252550400000004e+01 0.000000000000000000e+00 -4.529674000000000200e-02 -4.927208000000000282e-02 1.028010204799999983e+01
1.052195256999999984e+01 0.000000000000000000e+00 0.000000000000000000e+00 3.694659200000000032e-02 1.098664556199999964e+01 0.000000000000000000e+00 -4.641250200000000131e-02 -5.048576300000000294e-02 1.053332421600000046e+01
1.015467390399999914e+01 0.000000000000000000e+00 0.000000000000000000e+00 3.565693699999999966e-02 1.060314634899999930e+01 0.000000000000000000e+00 -4.479242900000000166e-02 -4.872350999999999765e-02 1.016564861099999995e+01
1.037889210400000017e+01 0.000000000000000000e+00 0.000000000000000000e+00 3.644425300000000284e-02 1.083726695400000040e+01 0.000000000000000000e+00 -4.578146000000000299e-02 -4.979933999999999750e-02 1.039010913599999952e+01
1.058306761899999948e+01 0.000000000000000000e+00 0.000000000000000000e+00 3.716119100000000314e-02 1.105045970499999974e+01 0.000000000000000000e+00 -4.668208100000000027e-02 -5.077900099999999722e-02 1.059450531499999926e+01
1.014259987099999982e+01 0.000000000000000000e+00 0.000000000000000000e+00 3.561454000000000009e-02 1.059053907800000083e+01 0.000000000000000000e+00 -4.473917100000000119e-02 -4.866557700000000153e-02 1.015356152999999928e+01
1.052439036600000044e+01 0.000000000000000000e+00 0.000000000000000000e+00 3.695515299999999753e-02 1.098919102099999989e+01 0.000000000000000000e+00 -4.642325499999999661e-02 -5.049746000000000096e-02 1.053576464600000051e+01
1.010786359399999945e+01 0.000000000000000000e+00 0.000000000000000000e+00 3.549256800000000212e-02 1.055426870199999989e+01 0.000000000000000000e+00 -4.458594800000000025e-02 -4.849890800000000030e-02 1.011878771099999952e+01
1.026967185600000043e+01 0.000000000000000000e+00 0.000000000000000000e+00 3.606073900000000138e-02 1.072322308699999915e+01 0.000000000000000000e+00 -4.529968699999999820e-02 -4.927528600000000147e-02 1.028077084799999952e+01
1.034765966900000045e+01 0.000000000000000000e+00 0.000000000000000000e+00 3.633458400000000310e-02 1.080465516499999978e+01 0.000000000000000000e+00 -4.564369299999999907e-02 -4.964948200000000172e-02 1.035884294699999941e+01
1.011175547100000038e+01 0.000000000000000000e+00 0.000000000000000000e+00 3.550623399999999763e-02 1.055833246099999911e+01 0.000000000000000000e+00 -4.460311599999999821e-02 -4.851758199999999660e-02 1.012268379400000029e+01
1.038751610599999964e+01 0.000000000000000000e+00 0.000000000000000000e+00 3.647453500000000237e-02 1.084627182700000070e+01 0.000000000000000000e+00 -4.581949999999999912e-02 -4.984071899999999861e-02 1.039874245899999927e+01
1.034910326400000002e+01 0.000000000000000000e+00 0.000000000000000000e+00 3.633965299999999954e-02 1.080616251500000047e+01 0.000000000000000000e+00 -4.565006099999999872e-02 -4.965640899999999858e-02 1.036028810200000017e+01
1.042456887500000029e+01 0.000000000000000000e+00 0.000000000000000000e+00 3.660464100000000026e-02 1.088496100000000055e+01 0.000000000000000000e+00 -4.598294099999999940e-02 -5.001850299999999888e-02 1.043583527200000027e+01
1.050366199299999970e+01 0.000000000000000000e+00 0.000000000000000000e+00 3.688236699999999924e-02 1.096754719700000003e+01 0.000000000000000000e+00 -4.633182200000000167e-02 -5.039800199999999730e-02 1.051501387100000073e+01
1.028951709100000045e+01 0.000000000000000000e+00 0.000000000000000000e+00 3.613042300000000179e-02 1.074394476900000051e+01 0.000000000000000000e+00 -4.538722500000000326e-02 -4.937050600000000150e-02 1.030063753099999957e+01
1.021953936899999960e+01 0.000000000000000000e+00 0.000000000000000000e+00 3.588470400000000338e-02 1.067087654200000024e+01 0.000000000000000000e+00 -4.507855200000000090e-02 -4.903474299999999869e-02 1.023058418099999933e+01
1.026046260100000040e+01 0.000000000000000000e+00 0.000000000000000000e+00 3.602840100000000156e-02 1.071360711400000021e+01 0.000000000000000000e+00 -4.525906500000000110e-02 -4.923109900000000039e-02 1.027155164000000021e+01
1.023304177800000048e+01 0.000000000000000000e+00 0.000000000000000000e+00 3.593211600000000006e-02 1.068497527299999916e+01 0.000000000000000000e+00 -4.513811100000000159e-02 -4.909953000000000234e-02 1.024410118199999964e+01
1.029606701099999988e+01 0.000000000000000000e+00 0.000000000000000000e+00 3.615342199999999756e-02 1.075078396099999978e+01 0.000000000000000000e+00 -4.541611699999999890e-02 -4.940193300000000204e-02 1.030719452900000022e+01
1.037794954800000014e+01 0.000000000000000000e+00 0.000000000000000000e+00 3.644094300000000342e-02 1.083628277000000040e+01 0.000000000000000000e+00 -4.577730199999999888e-02 -4.979481699999999816e-02 1.038916556200000052e+01
1.042064016299999984e+01 0.000000000000000000e+00 0.000000000000000000e+00 3.659084600000000326e-02 1.088085878000000051e+01 0.000000000000000000e+00 -4.596561100000000344e-02 -4.999965199999999860e-02 1.043190231500000031e+01
1.028856945899999964e+01 0.000000000000000000e+00 0.000000000000000000e+00 3.612709499999999796e-02 1.074295528600000083e+01 0.000000000000000000e+00 -4.538304499999999686e-02 -4.936595900000000092e-02 1.029968887399999922e+01
1.036068270300000016e+01 0.000000000000000000e+00 0.000000000000000000e+00 3.638031199999999799e-02 1.081825334900000080e+01 0.000000000000000000e+00 -4.570113800000000226e-02 -4.971196800000000221e-02 1.037188005500000010e+01
1.025314165600000038e+01 0.000000000000000000e+00 0.000000000000000000e+00 3.600269500000000122e-02 1.070596284500000017e+01 0.000000000000000000e+00 -4.522677199999999842e-02 -4.919597199999999754e-02 1.026422278299999924e+01
1.039949687200000028e+01 0.000000000000000000e+00 0.000000000000000000e+00 3.651660400000000112e-02 1.085878171399999914e+01 0.000000000000000000e+00 -4.587234800000000029e-02 -4.989820400000000156e-02 1.041073617300000009e+01
1.043222969300000003e+01 0.000000000000000000e+00 0.000000000000000000e+00 3.663154099999999663e-02 1.089296015100000048e+01 0.000000000000000000e+00 -4.601673299999999717e-02 -5.005526099999999673e-02 1.044350436999999943e+01
1.019208984700000009e+01 0.000000000000000000e+00 0.000000000000000000e+00 3.578831899999999899e-02 1.064221473499999959e+01 0.000000000000000000e+00 -4.495747199999999832e-02 -4.890303700000000336e-02 1.020310499200000010e+01
1.028344999900000012e+01 0.000000000000000000e+00 0.000000000000000000e+00 3.610911900000000202e-02 1.073760973000000085e+01 0.000000000000000000e+00 -4.536046299999999670e-02 -4.934139500000000317e-02 1.029456388200000028e+01
1.049192342099999919e+01 0.000000000000000000e+00 0.000000000000000000e+00 3.684114899999999665e-02 1.095529020100000039e+01 0.000000000000000000e+00 -4.628004299999999988e-02 -5.034167900000000029e-02 1.050326261200000033e+01
1.013586925299999919e+01 0.000000000000000000e+00 0.000000000000000000e+00 3.559090699999999802e-02 1.058351120700000081e+01 0.000000000000000000e+00 -4.470948200000000178e-02 -4.863328299999999937e-02 1.014682363700000067e+01
1.031559190499999978e+01 0.000000000000000000e+00 0.000000000000000000e+00 3.622198100000000032e-02 1.077117115599999941e+01 0.000000000000000000e+00 -4.550224099999999883e-02 -4.949561699999999870e-02 1.032674052499999995e+01
1.034669347800000061e+01 0.000000000000000000e+00 0.000000000000000000e+00 3.633119099999999879e-02 1.080364630200000065e+01 0.000000000000000000e+00 -4.563943100000000114e-02 -4.964484599999999942e-02 1.035787571100000015e+01
1.040239569799999941e+01 0.000000000000000000e+00 0.000000000000000000e+00 3.652678300000000017e-02 1.086180856400000039e+01 0.000000000000000000e+00 -4.588513400000000103e-02 -4.991211300000000101e-02 1.041363813200000088e+01
1.028102913400000062e+01 0.000000000000000000e+00 0.000000000000000000e+00 3.610061800000000098e-02 1.073508194899999957e+01 0.000000000000000000e+00 -4.534978399999999715e-02 -4.932977999999999669e-02 1.029214039999999919e+01
1.031369883600000037e+01 0.000000000000000000e+00 0.000000000000000000e+00 3.621533400000000180e-02 1.076919447999999946e+01 0.000000000000000000e+00 -4.549389100000000158e-02 -4.948653299999999922e-02 1.032484541000000000e+01
1.032966436799999954e+01 0.000000000000000000e+00 0.000000000000000000e+00 3.627139499999999794e-02 1.078586511700000017e+01 0.000000000000000000e+00 -4.556431500000000107e-02 -4.956313799999999964e-02 1.034082819700000044e+01
1.034867756999999955e+01 0.000000000000000000e+00 0.000000000000000000e+00 3.633815800000000235e-02 1.080571802000000048e+01 0.000000000000000000e+00 -4.564818300000000190e-02 -4.965436599999999839e-02 1.035986194800000071e+01
1.049863686600000001e+01 0.000000000000000000e+00 0.000000000000000000e+00 3.686472200000000254e-02 1.096230013999999997e+01 0.000000000000000000e+00 -4.630965599999999766e-02 -5.037389099999999703e-02 1.050998331299999933e+01
1.020209460000000057e+01 0.000000000000000000e+00 0.000000000000000000e+00 3.582344900000000026e-02 1.065266133999999987e+01 0.000000000000000000e+00 -4.500160300000000113e-02 -4.895104100000000069e-02 1.021312055799999996e+01
1.042916313799999983e+01 0.000000000000000000e+00 0.000000000000000000e+00 3.662077300000000230e-02 1.088975816499999993e+01 0.000000000000000000e+00 -4.600320599999999788e-02 -5.004054699999999772e-02 1.044043450100000037e+01
1.038764580399999993e+01 0.000000000000000000e+00 0.000000000000000000e+00 3.647498999999999880e-02 1.084640725300000064e+01 0.000000000000000000e+00 -4.582007200000000335e-02 -4.984134099999999734e-02 1.039887229700000049e+01
1.054878558300000080e+01 0.000000000000000000e+00 0.000000000000000000e+00 3.704081299999999882e-02 1.101466363199999954e+01 0.000000000000000000e+00 -4.653086199999999922e-02 -5.061451200000000039e-02 1.056018622899999926e+01
1.018536924300000024e+01 0.000000000000000000e+00 0.000000000000000000e+00 3.576471999999999984e-02 1.063519732199999979e+01 0.000000000000000000e+00 -4.492782699999999657e-02 -4.887078999999999729e-02 1.019637712499999971e+01
1.036937142400000056e+01 0.000000000000000000e+00 0.000000000000000000e+00 3.641082200000000241e-02 1.082732580100000064e+01 0.000000000000000000e+00 -4.573946400000000051e-02 -4.975365799999999922e-02 1.038057816699999947e+01
1.027574793900000039e+01 0.000000000000000000e+00 0.000000000000000000e+00 3.608207399999999870e-02 1.072956751499999939e+01 0.000000000000000000e+00 -4.532648899999999759e-02 -4.930443999999999799e-02 1.028685349799999926e+01
1.017990880099999984e+01 0.000000000000000000e+00 0.000000000000000000e+00 3.574554600000000304e-02 1.062949572399999987e+01 0.000000000000000000e+00 -4.490374099999999702e-02 -4.884459000000000023e-02 1.019091078199999956e+01
1.055932134000000033e+01 0.000000000000000000e+00 0.000000000000000000e+00 3.707780799999999682e-02 1.102566469199999943e+01 0.000000000000000000e+00 -4.657733599999999696e-02 -5.066506400000000271e-02 1.057073337199999941e+01
1.019436585899999947e+01 0.000000000000000000e+00 0.000000000000000000e+00 3.579630999999999785e-02 1.064459126600000083e+01 0.000000000000000000e+00 -4.496751100000000168e-02 -4.891395700000000096e-02 1.020538346400000052e+01
1.038729939899999977e+01 0.000000000000000000e+00 0.000000000000000000e+00 3.647377400000000047e-02 1.084604554899999940e+01 0.000000000000000000e+00 -4.581854400000000271e-02 -4.983967899999999784e-02 1.039852551699999950e+01
1.022789165500000053e+01 0.000000000000000000e+00 0.000000000000000000e+00 3.591403199999999851e-02 1.067959769900000033e+01 0.000000000000000000e+00 -4.511539400000000311e-02 -4.907481899999999869e-02 1.023894549299999923e+01
1.012131005200000011e+01 0.000000000000000000e+00 0.000000000000000000e+00 3.553978399999999788e-02 1.056830901100000020e+01 0.000000000000000000e+00 -4.464526099999999859e-02 -4.856342599999999982e-02 1.013224870099999997e+01
1.017815595399999928e+01 0.000000000000000000e+00 0.000000000000000000e+00 3.573939100000000230e-02 1.062766546399999967e+01 0.000000000000000000e+00 -4.489600900000000061e-02 -4.883617999999999987e-02 1.018915604000000030e+01
1.026357475700000066e+01 0.000000000000000000e+00 0.000000000000000000e+00 3.603932900000000189e-02 1.071685671500000048e+01 0.000000000000000000e+00 -4.527279299999999868e-02 -4.924603100000000261e-02 1.027466715999999991e+01
1.036146013399999966e+01 0.000000000000000000e+00 0.000000000000000000e+00 3.638304199999999738e-02 1.081906511600000087e+01 0.000000000000000000e+00 -4.570456700000000150e-02 -4.971569900000000208e-02 1.037265832699999990e+01
1.031819915800000054e+01 0.000000000000000000e+00 0.000000000000000000e+00 3.623113599999999712e-02 1.077389355600000087e+01 0.000000000000000000e+00 -4.551374200000000286e-02 -4.950812599999999952e-02 1.032935059599999938e+01
