1.052159016699999938e+01 0.000000000000000000e+00 0.000000000000000000e+00 -3.482249500000000192e-02 1.066704873700000000e+01 0.000000000000000000e+00 -1.781400724999999907e+00 4.767529699999999843e-02 1.076624858099999926e+01
1.048939684499999991e+01 0.000000000000000000e+00 0.000000000000000000e+00 -3.471594800000000341e-02 1.063441034899999948e+01 0.000000000000000000e+00 -1.775950103000000002e+00 4.752942300000000120e-02 1.073330666700000080e+01
1.048590165699999943e+01 0.000000000000000000e+00 0.000000000000000000e+00 -3.470437999999999995e-02 1.063086684199999965e+01 0.000000000000000000e+00 -1.775358336000000037e+00 4.751358499999999707e-02 1.072973020599999927e+01
1.043065611099999934e+01 0.000000000000000000e+00 0.000000000000000000e+00 -3.452153799999999745e-02 1.057485753799999983e+01 0.000000000000000000e+00 -1.766004764000000060e+00 4.726325800000000243e-02 1.067320003600000078e+01
1.030905564699999921e+01 0.000000000000000000e+00 0.000000000000000000e+00 -3.411908599999999986e-02 1.045157597600000088e+01 0.000000000000000000e+00 -1.745416700999999904e+00 4.671226299999999693e-02 1.054877199799999943e+01
1.043740503499999939e+01 0.000000000000000000e+00 0.000000000000000000e+00 -3.454387400000000219e-02 1.058169976499999976e+01 0.000000000000000000e+00 -1.767147417999999970e+00 4.729383799999999777e-02 1.068010589300000035e+01
1.050787573100000039e+01 0.000000000000000000e+00 0.000000000000000000e+00 -3.477710600000000207e-02 1.065314470200000052e+01 0.000000000000000000e+00 -1.779078745999999933e+00 4.761315399999999781e-02 1.075221524300000020e+01
1.065876810099999972e+01 0.000000000000000000e+00 0.000000000000000000e+00 -3.527650300000000072e-02 1.080612312400000086e+01 0.000000000000000000e+00 -1.804626193999999906e+00 4.829687600000000247e-02 1.090661631100000051e+01
1.028741145300000071e+01 0.000000000000000000e+00 0.000000000000000000e+00 -3.404745199999999888e-02 1.042963255599999961e+01 0.000000000000000000e+00 -1.741752143000000030e+00 4.661418900000000032e-02 1.052662451199999971e+01
1.049296443200000084e+01 0.000000000000000000e+00 0.000000000000000000e+00 -3.472775499999999904e-02 1.063802725799999926e+01 0.000000000000000000e+00 -1.776554127999999899e+00 4.754558799999999974e-02 1.073695721200000008e+01
1.039356897400000079e+01 0.000000000000000000e+00 0.000000000000000000e+00 -3.439879400000000337e-02 1.053725768099999982e+01 0.000000000000000000e+00 -1.759725575000000042e+00 4.709520899999999899e-02 1.063525051300000079e+01
1.029131650399999920e+01 0.000000000000000000e+00 0.000000000000000000e+00 -3.406037600000000332e-02 1.043359159299999916e+01 0.000000000000000000e+00 -1.742413302999999969e+00 4.663188399999999845e-02 1.053062036600000084e+01
1.045577517100000087e+01 0.000000000000000000e+00 0.000000000000000000e+00 -3.460467300000000246e-02 1.060032386399999993e+01 0.000000000000000000e+00 -1.770257648999999933e+00 4.737707699999999661e-02 1.069890318899999926e+01
1.022177291200000049e+01 0.000000000000000000e+00 0.000000000000000000e+00 -3.383021299999999787e-02 1.036308657700000069e+01 0.000000000000000000e+00 -1.730638941999999902e+00 4.631676900000000069e-02 1.045945967799999998e+01
1.039570667299999940e+01 0.000000000000000000e+00 0.000000000000000000e+00 -3.440586899999999865e-02 1.053942493199999930e+01 0.000000000000000000e+00 -1.760087506999999940e+00 4.710489500000000079e-02 1.063743791899999991e+01
1.041441313700000038e+01 0.000000000000000000e+00 0.000000000000000000e+00 -3.446778000000000342e-02 1.055839000900000002e+01 0.000000000000000000e+00 -1.763254681000000046e+00 4.718965800000000238e-02 1.065657936500000069e+01
1.046758533000000035e+01 0.000000000000000000e+00 0.000000000000000000e+00 -3.464376000000000261e-02 1.061229729599999949e+01 0.000000000000000000e+00 -1.772257216000000080e+00 4.743059100000000111e-02 1.071098796999999969e+01
1.036611457200000075e+01 0.000000000000000000e+00 0.000000000000000000e+00 -3.430793000000000037e-02 1.050942372699999972e+01 0.000000000000000000e+00 -1.755077294999999982e+00 4.697080800000000278e-02 1.060715771299999943e+01
1.032249958100000065e+01 0.000000000000000000e+00 0.000000000000000000e+00 -3.416358099999999842e-02 1.046520577000000074e+01 0.000000000000000000e+00 -1.747692881000000087e+00 4.677317999999999754e-02 1.056252854399999919e+01
1.042808913100000012e+01 0.000000000000000000e+00 0.000000000000000000e+00 -3.451304200000000072e-02 1.057225507000000064e+01 0.000000000000000000e+00 -1.765570150999999921e+00 4.725162599999999796e-02 1.067057336599999928e+01
1.033982701699999929e+01 0.000000000000000000e+00 0.000000000000000000e+00 -3.422092799999999768e-02 1.048277275300000078e+01 0.000000000000000000e+00 -1.750626573999999991e+00 4.685169399999999928e-02 1.058025889500000005e+01
1.033386380800000026e+01 0.000000000000000000e+00 0.000000000000000000e+00 -3.420119199999999832e-02 1.047672710400000007e+01 0.000000000000000000e+00 -1.749616947999999894e+00 4.682467299999999721e-02 1.057415702199999963e+01
1.024630935499999929e+01 0.000000000000000000e+00 0.000000000000000000e+00 -3.391141999999999768e-02 1.038796223099999949e+01 0.000000000000000000e+00 -1.734793185000000015e+00 4.642794799999999666e-02 1.048456666799999937e+01
1.035596265100000046e+01 0.000000000000000000e+00 0.000000000000000000e+00 -3.427433099999999816e-02 1.049913145900000089e+01 0.000000000000000000e+00 -1.753358482999999968e+00 4.692480699999999894e-02 1.059676973000000011e+01
1.040453070799999935e+01 0.000000000000000000e+00 0.000000000000000000e+00 -3.443507299999999660e-02 1.054837095799999958e+01 0.000000000000000000e+00 -1.761581496000000024e+00 4.714487800000000117e-02 1.064646713900000030e+01
1.028290888799999969e+01 0.000000000000000000e+00 0.000000000000000000e+00 -3.403255000000000169e-02 1.042506774399999969e+01 0.000000000000000000e+00 -1.740989818000000078e+00 4.659378699999999762e-02 1.052201724899999924e+01
1.043231422200000047e+01 0.000000000000000000e+00 0.000000000000000000e+00 -3.452702600000000233e-02 1.057653857300000055e+01 0.000000000000000000e+00 -1.766285496999999927e+00 4.727077100000000309e-02 1.067489670299999993e+01
1.040983769300000006e+01 0.000000000000000000e+00 0.000000000000000000e+00 -3.445263700000000123e-02 1.055375131000000088e+01 0.000000000000000000e+00 -1.762480016000000038e+00 4.716892500000000044e-02 1.065189752699999914e+01
1.035277378500000012e+01 0.000000000000000000e+00 0.000000000000000000e+00 -3.426377700000000220e-02 1.049589850699999971e+01 0.000000000000000000e+00 -1.752818578999999932e+00 4.691035799999999922e-02 1.059350671300000002e+01
1.039823816200000017e+01 0.000000000000000000e+00 0.000000000000000000e+00 -3.441424700000000197e-02 1.054199141900000036e+01 0.000000000000000000e+00 -1.760516111000000050e+00 4.711636599999999980e-02 1.064002827300000042e+01
1.026945899100000048e+01 0.000000000000000000e+00 0.000000000000000000e+00 -3.398803599999999925e-02 1.041143190600000068e+01 0.000000000000000000e+00 -1.738712628000000038e+00 4.653284299999999735e-02 1.050825460199999917e+01
1.031163287599999911e+01 0.000000000000000000e+00 0.000000000000000000e+00 -3.412761599999999951e-02 1.045418883399999999e+01 0.000000000000000000e+00 -1.745853048999999935e+00 4.672394099999999800e-02 1.055140915499999998e+01
1.049367084100000014e+01 0.000000000000000000e+00 0.000000000000000000e+00 -3.473009299999999661e-02 1.063874343200000006e+01 0.000000000000000000e+00 -1.776673729000000090e+00 4.754878900000000103e-02 1.073768004699999956e+01
1.039694237800000032e+01 0.000000000000000000e+00 0.000000000000000000e+00 -3.440995799999999744e-02 1.054067772099999978e+01 0.000000000000000000e+00 -1.760296722999999952e+00 4.711049400000000276e-02 1.063870235799999975e+01
1.063609654300000074e+01 0.000000000000000000e+00 0.000000000000000000e+00 -3.520146799999999965e-02 1.078313813699999990e+01 0.000000000000000000e+00 -1.800787694000000050e+00 4.819414699999999968e-02 1.088341757200000082e+01
1.033364236299999916e+01 0.000000000000000000e+00 0.000000000000000000e+00 -3.420045900000000250e-02 1.047650259699999964e+01 0.000000000000000000e+00 -1.749579454999999895e+00 4.682366999999999779e-02 1.057393042800000060e+01
1.065905984299999965e+01 0.000000000000000000e+00 0.000000000000000000e+00 -3.527746799999999933e-02 1.080641890000000060e+01 0.000000000000000000e+00 -1.804675588999999913e+00 4.829819800000000052e-02 1.090691483700000042e+01
1.046387361200000043e+01 0.000000000000000000e+00 0.000000000000000000e+00 -3.463147500000000184e-02 1.060853426399999933e+01 0.000000000000000000e+00 -1.771628787999999899e+00 4.741377199999999986e-02 1.070718994299999949e+01
1.039211195400000065e+01 0.000000000000000000e+00 0.000000000000000000e+00 -3.439397100000000235e-02 1.053578051699999918e+01 0.000000000000000000e+00 -1.759478888000000074e+00 4.708860699999999760e-02 1.063375961200000042e+01
1.038671941700000012e+01 0.000000000000000000e+00 0.000000000000000000e+00 -3.437612400000000096e-02 1.053031342999999964e+01 0.000000000000000000e+00 -1.758565882999999941e+00 4.706417200000000134e-02 1.062824168300000061e+01
1.037300041399999984e+01 0.000000000000000000e+00 0.000000000000000000e+00 -3.433071900000000259e-02 1.051640476400000068e+01 0.000000000000000000e+00 -1.756243130999999957e+00 4.700200899999999737e-02 1.061420367100000028e+01
1.052225313299999954e+01 0.000000000000000000e+00 0.000000000000000000e+00 -3.482468999999999842e-02 1.066772086799999997e+01 0.000000000000000000e+00 -1.781512970999999945e+00 4.767830099999999932e-02 1.076692696199999943e+01
1.040810103499999961e+01 0.000000000000000000e+00 0.000000000000000000e+00 -3.444688900000000137e-02 1.055199064399999997e+01 0.000000000000000000e+00 -1.762185984999999899e+00 4.716105599999999981e-02 1.065012048700000058e+01
1.034043656699999936e+01 0.000000000000000000e+00 0.000000000000000000e+00 -3.422294499999999767e-02 1.048339072999999999e+01 0.000000000000000000e+00 -1.750729776000000015e+00 4.685445600000000266e-02 1.058088261800000041e+01
1.037849287899999950e+01 0.000000000000000000e+00 0.000000000000000000e+00 -3.434889700000000323e-02 1.052197316200000010e+01 0.000000000000000000e+00 -1.757173054999999984e+00 4.702689599999999859e-02 1.061982385299999976e+01
1.043923572599999972e+01 0.000000000000000000e+00 0.000000000000000000e+00 -3.454993299999999795e-02 1.058355576399999975e+01 0.000000000000000000e+00 -1.767457370000000028e+00 4.730213300000000315e-02 1.068197915300000034e+01
1.037007768500000005e+01 0.000000000000000000e+00 0.000000000000000000e+00 -3.432104600000000089e-02 1.051344162900000079e+01 0.000000000000000000e+00 -1.755748285999999991e+00 4.698876500000000178e-02 1.061121297999999946e+01
1.039860589000000068e+01 0.000000000000000000e+00 0.000000000000000000e+00 -3.441546399999999978e-02 1.054236423100000053e+01 0.000000000000000000e+00 -1.760578369999999948e+00 4.711803199999999719e-02 1.064040455199999968e+01
1.059057203999999963e+01 0.000000000000000000e+00 0.000000000000000000e+00 -3.505079900000000054e-02 1.073698426900000058e+01 0.000000000000000000e+00 -1.793079982000000072e+00 4.798786699999999655e-02 1.083683448899999924e+01
1.042708417599999926e+01 0.000000000000000000e+00 0.000000000000000000e+00 -3.450971600000000278e-02 1.057123622199999957e+01 0.000000000000000000e+00 -1.765400003000000106e+00 4.724707200000000107e-02 1.066954504299999940e+01
1.050943452099999931e+01 0.000000000000000000e+00 0.000000000000000000e+00 -3.478226499999999971e-02 1.065472504200000081e+01 0.000000000000000000e+00 -1.779342664000000074e+00 4.762021699999999941e-02 1.075381027999999972e+01
1.051276722399999919e+01 0.000000000000000000e+00 0.000000000000000000e+00 -3.479329500000000186e-02 1.065810381900000081e+01 0.000000000000000000e+00 -1.779906919999999948e+00 4.763531800000000288e-02 1.075722047800000070e+01
1.057688090999999986e+01 0.000000000000000000e+00 0.000000000000000000e+00 -3.500548700000000180e-02 1.072310386200000032e+01 0.000000000000000000e+00 -1.790761948999999964e+00 4.792582900000000312e-02 1.082282499799999975e+01
1.033974341300000077e+01 0.000000000000000000e+00 0.000000000000000000e+00 -3.422065099999999777e-02 1.048268799300000076e+01 0.000000000000000000e+00 -1.750612419000000086e+00 4.685131499999999755e-02 1.058017334600000048e+01
1.041988646599999946e+01 0.000000000000000000e+00 0.000000000000000000e+00 -3.448589500000000252e-02 1.056393900600000002e+01 0.000000000000000000e+00 -1.764181365000000001e+00 4.721445800000000081e-02 1.066217996499999998e+01
1.054082359300000071e+01 0.000000000000000000e+00 0.000000000000000000e+00 -3.488615099999999719e-02 1.068654806099999988e+01 0.000000000000000000e+00 -1.784657117999999931e+00 4.776244699999999954e-02 1.078592924199999992e+01
1.039887861699999938e+01 0.000000000000000000e+00 0.000000000000000000e+00 -3.441636599999999685e-02 1.054264072700000021e+01 0.000000000000000000e+00 -1.760624544999999985e+00 4.711926799999999887e-02 1.064068362000000079e+01
1.038738591499999941e+01 0.000000000000000000e+00 0.000000000000000000e+00 -3.437832999999999861e-02 1.053098914199999925e+01 0.000000000000000000e+00 -1.758678726999999942e+00 4.706719200000000075e-02 1.062892367799999960e+01
1.052717503300000068e+01 0.000000000000000000e+00 0.000000000000000000e+00 -3.484097900000000109e-02 1.067271081200000005e+01 0.000000000000000000e+00 -1.782346293000000026e+00 4.770060300000000114e-02 1.077196331100000037e+01
1.027988268300000030e+01 0.000000000000000000e+00 0.000000000000000000e+00 -3.402253499999999958e-02 1.042199970299999912e+01 0.000000000000000000e+00 -1.740477454000000090e+00 4.658007499999999856e-02 1.051892067600000047e+01
1.037710785300000005e+01 0.000000000000000000e+00 0.000000000000000000e+00 -3.434431300000000131e-02 1.052056898800000084e+01 0.000000000000000000e+00 -1.756938558000000095e+00 4.702061999999999908e-02 1.061840662100000010e+01
1.046890222699999917e+01 0.000000000000000000e+00 0.000000000000000000e+00 -3.464811799999999858e-02 1.061363239800000002e+01 0.000000000000000000e+00 -1.772480177999999906e+00 4.743655799999999673e-02 1.071233548900000088e+01
1.034679957200000011e+01 0.000000000000000000e+00 0.000000000000000000e+00 -3.424400400000000150e-02 1.048984170199999966e+01 0.000000000000000000e+00 -1.751807090000000011e+00 4.688328800000000213e-02 1.058739358200000069e+01
1.029664556900000072e+01 0.000000000000000000e+00 0.000000000000000000e+00 -3.407801399999999675e-02 1.043899433099999996e+01 0.000000000000000000e+00 -1.743315562000000041e+00 4.665603100000000059e-02 1.053607334800000039e+01
1.015611354099999986e+01 0.000000000000000000e+00 0.000000000000000000e+00 -3.361290599999999795e-02 1.029651948000000061e+01 0.000000000000000000e+00 -1.719522213999999938e+00 4.601925400000000249e-02 1.039227353000000065e+01
1.035390310300000039e+01 0.000000000000000000e+00 0.000000000000000000e+00 -3.426751499999999839e-02 1.049704343800000039e+01 0.000000000000000000e+00 -1.753009782999999988e+00 4.691547499999999815e-02 1.059466229200000065e+01
1.052692920199999982e+01 0.000000000000000000e+00 0.000000000000000000e+00 -3.484016599999999880e-02 1.067246158300000047e+01 0.000000000000000000e+00 -1.782304671999999979e+00 4.769948899999999770e-02 1.077171176400000085e+01
1.057580391900000016e+01 0.000000000000000000e+00 0.000000000000000000e+00 -3.500192299999999729e-02 1.072201198099999964e+01 0.000000000000000000e+00 -1.790579605000000019e+00 4.792094899999999741e-02 1.082172296399999922e+01
1.048339311700000032e+01 0.000000000000000000e+00 0.000000000000000000e+00 -3.469607799999999825e-02 1.062832362199999992e+01 0.000000000000000000e+00 -1.774933617000000075e+00 4.750221899999999831e-02 1.072716333500000019e+01
1.049952344499999946e+01 0.000000000000000000e+00 0.000000000000000000e+00 -3.474946300000000127e-02 1.064467694700000067e+01 0.000000000000000000e+00 -1.777664627999999913e+00 4.757530799999999671e-02 1.074366874100000047e+01
1.049499355400000056e+01 0.000000000000000000e+00 0.000000000000000000e+00 -3.473447100000000287e-02 1.064008443200000009e+01 0.000000000000000000e+00 -1.776897677000000009e+00 4.755478300000000325e-02 1.073903351699999931e+01
1.047404499199999961e+01 0.000000000000000000e+00 0.000000000000000000e+00 -3.466513899999999759e-02 1.061884626099999984e+01 0.000000000000000000e+00 -1.773350895000000094e+00 4.745986099999999902e-02 1.071759783799999965e+01
1.022375392600000055e+01 0.000000000000000000e+00 0.000000000000000000e+00 -3.383677000000000212e-02 1.036509497900000021e+01 0.000000000000000000e+00 -1.730974345999999997e+00 4.632574500000000151e-02 1.046148675799999950e+01
1.031770025900000043e+01 0.000000000000000000e+00 0.000000000000000000e+00 -3.414769699999999769e-02 1.046034009699999956e+01 0.000000000000000000e+00 -1.746880312000000046e+00 4.675143300000000196e-02 1.055761762300000051e+01
1.030042687000000079e+01 0.000000000000000000e+00 0.000000000000000000e+00 -3.409052800000000188e-02 1.044282790799999994e+01 0.000000000000000000e+00 -1.743955770999999988e+00 4.667316400000000309e-02 1.053994257599999962e+01
1.044729147900000044e+01 0.000000000000000000e+00 0.000000000000000000e+00 -3.457659500000000163e-02 1.059172288699999953e+01 0.000000000000000000e+00 -1.768821281999999995e+00 4.733863499999999697e-02 1.069022222599999949e+01
1.035456907500000057e+01 0.000000000000000000e+00 0.000000000000000000e+00 -3.426971899999999710e-02 1.049771861600000022e+01 0.000000000000000000e+00 -1.753122537999999953e+00 4.691849299999999862e-02 1.059534374899999953e+01
1.041161870300000025e+01 0.000000000000000000e+00 0.000000000000000000e+00 -3.445853100000000058e-02 1.055555694299999914e+01 0.000000000000000000e+00 -1.762781557999999915e+00 4.717699499999999935e-02 1.065371995199999944e+01
1.046208102599999989e+01 0.000000000000000000e+00 0.000000000000000000e+00 -3.462554300000000168e-02 1.060671689600000001e+01 0.000000000000000000e+00 -1.771325287000000026e+00 4.740565000000000057e-02 1.070535567399999977e+01
1.036265945599999938e+01 0.000000000000000000e+00 0.000000000000000000e+00 -3.429649500000000323e-02 1.050592084500000034e+01 0.000000000000000000e+00 -1.754492313000000081e+00 4.695515200000000000e-02 1.060362225499999944e+01
1.021261232600000035e+01 0.000000000000000000e+00 0.000000000000000000e+00 -3.379989500000000341e-02 1.035379934800000079e+01 0.000000000000000000e+00 -1.729087971000000001e+00 4.627525999999999862e-02 1.045008608100000025e+01
1.033961510900000036e+01 0.000000000000000000e+00 0.000000000000000000e+00 -3.422022699999999890e-02 1.048255791499999923e+01 0.000000000000000000e+00 -1.750590695999999946e+00 4.685073399999999805e-02 1.058004205800000008e+01
1.032847190000000026e+01 0.000000000000000000e+00 0.000000000000000000e+00 -3.418334700000000281e-02 1.047126065399999995e+01 0.000000000000000000e+00 -1.748704049000000094e+00 4.680024199999999884e-02 1.056863973699999981e+01
1.040609231200000018e+01 0.000000000000000000e+00 0.000000000000000000e+00 -3.444024100000000338e-02 1.054995415099999967e+01 0.000000000000000000e+00 -1.761845888999999943e+00 4.715195400000000286e-02 1.064806505500000000e+01
1.044131720400000063e+01 0.000000000000000000e+00 0.000000000000000000e+00 -3.455682200000000093e-02 1.058566601899999959e+01 0.000000000000000000e+00 -1.767809782999999912e+00 4.731156499999999987e-02 1.068410903100000020e+01
1.043356452599999962e+01 0.000000000000000000e+00 0.000000000000000000e+00 -3.453116400000000308e-02 1.057780616099999982e+01 0.000000000000000000e+00 -1.766497184999999970e+00 4.727643599999999807e-02 1.067617607999999940e+01
1.050244853999999961e+01 0.000000000000000000e+00 0.000000000000000000e+00 -3.475914399999999876e-02 1.064764248100000010e+01 0.000000000000000000e+00 -1.778159873999999974e+00 4.758856200000000092e-02 1.074666185399999918e+01
1.044735303500000079e+01 0.000000000000000000e+00 0.000000000000000000e+00 -3.457679899999999834e-02 1.059178529299999916e+01 0.000000000000000000e+00 -1.768831703999999894e+00 4.733891400000000277e-02 1.069028521299999923e+01
1.046417593700000026e+01 0.000000000000000000e+00 0.000000000000000000e+00 -3.463247600000000231e-02 1.060884076800000031e+01 0.000000000000000000e+00 -1.771679973999999991e+00 4.741514200000000040e-02 1.070749929800000011e+01
1.036370088900000042e+01 0.000000000000000000e+00 0.000000000000000000e+00 -3.429994100000000046e-02 1.050697667600000074e+01 0.000000000000000000e+00 -1.754668636999999976e+00 4.695987100000000025e-02 1.060468790500000047e+01
1.026485542200000012e+01 0.000000000000000000e+00 0.000000000000000000e+00 -3.397279999999999744e-02 1.040676469299999951e+01 0.000000000000000000e+00 -1.737933202000000010e+00 4.651198399999999927e-02 1.050354398500000030e+01
1.043521488700000077e+01 0.000000000000000000e+00 0.000000000000000000e+00 -3.453662600000000082e-02 1.057947933800000051e+01 0.000000000000000000e+00 -1.766776606000000083e+00 4.728391400000000327e-02 1.067786481699999968e+01
1.050832984000000003e+01 0.000000000000000000e+00 0.000000000000000000e+00 -3.477860900000000199e-02 1.065360508899999914e+01 0.000000000000000000e+00 -1.779155631000000071e+00 4.761521199999999704e-02 1.075267991199999962e+01
1.039342333499999960e+01 0.000000000000000000e+00 0.000000000000000000e+00 -3.439831200000000033e-02 1.053711002800000074e+01 0.000000000000000000e+00 -1.759700916999999976e+00 4.709454899999999944e-02 1.063510148700000002e+01
1.045977194600000004e+01 0.000000000000000000e+00 0.000000000000000000e+00 -3.461790000000000006e-02 1.060437589300000027e+01 0.000000000000000000e+00 -1.770934339000000080e+00 4.739518699999999835e-02 1.070299290100000000e+01
1.039799718899999981e+01 0.000000000000000000e+00 0.000000000000000000e+00 -3.441344899999999873e-02 1.054174711499999972e+01 0.000000000000000000e+00 -1.760475312000000070e+00 4.711527399999999866e-02 1.063978169700000009e+01
1.048373607899999982e+01 0.000000000000000000e+00 0.000000000000000000e+00 -3.469721299999999758e-02 1.062867132499999911e+01 0.000000000000000000e+00 -1.774991683999999958e+00 4.750377299999999914e-02 1.072751427200000052e+01
1.051154467099999934e+01 0.000000000000000000e+00 0.000000000000000000e+00 -3.478924900000000126e-02 1.065686436500000056e+01 0.000000000000000000e+00 -1.779699930999999902e+00 4.762977899999999709e-02 1.075596949700000060e+01
1.049643419100000052e+01 0.000000000000000000e+00 0.000000000000000000e+00 -3.473923899999999815e-02 1.064154498599999954e+01 0.000000000000000000e+00 -1.777141590000000049e+00 4.756131000000000247e-02 1.074050765299999988e+01
1.035802952200000071e+01 0.000000000000000000e+00 0.000000000000000000e+00 -3.428117099999999917e-02 1.050122690399999925e+01 0.000000000000000000e+00 -1.753708422999999961e+00 4.693417300000000264e-02 1.059888466199999968e+01
