1.023316020000000037e+01 0.000000000000000000e+00 0.000000000000000000e+00 -1.166485849999999991e-01 1.025955362300000040e+01 0.000000000000000000e+00 2.003829999999999956e-04 -1.431437999999999938e-03 1.054479938399999916e+01
1.025719455599999996e+01 0.000000000000000000e+00 0.000000000000000000e+00 -1.169225539999999980e-01 1.028364996900000072e+01 0.000000000000000000e+00 2.008540000000000119e-04 -1.434799999999999964e-03 1.056956567900000010e+01
1.030946889300000002e+01 0.000000000000000000e+00 0.000000000000000000e+00 -1.175184340000000049e-01 1.033605913200000082e+01 0.000000000000000000e+00 2.018769999999999918e-04 -1.442111999999999951e-03 1.062343197100000047e+01
1.037660431399999972e+01 0.000000000000000000e+00 0.000000000000000000e+00 -1.182837149999999976e-01 1.040336770799999933e+01 0.000000000000000000e+00 2.031919999999999885e-04 -1.451503000000000038e-03 1.069261192399999949e+01
1.016495285899999956e+01 0.000000000000000000e+00 0.000000000000000000e+00 -1.158710839999999992e-01 1.019117036199999937e+01 0.000000000000000000e+00 1.990480000000000092e-04 -1.421897000000000091e-03 1.047451486699999990e+01
1.028826774999999927e+01 0.000000000000000000e+00 0.000000000000000000e+00 -1.172767599999999938e-01 1.031480330700000003e+01 0.000000000000000000e+00 2.014619999999999898e-04 -1.439146999999999996e-03 1.060158517099999997e+01
1.025654966199999940e+01 0.000000000000000000e+00 0.000000000000000000e+00 -1.169152029999999953e-01 1.028300341099999926e+01 0.000000000000000000e+00 2.008409999999999970e-04 -1.434710000000000065e-03 1.056890114499999989e+01
1.023540769499999925e+01 0.000000000000000000e+00 0.000000000000000000e+00 -1.166742040000000036e-01 1.026180691499999931e+01 0.000000000000000000e+00 2.004270000000000107e-04 -1.431751999999999895e-03 1.054711532399999996e+01
1.030519955499999973e+01 0.000000000000000000e+00 0.000000000000000000e+00 -1.174697670000000027e-01 1.033177878200000066e+01 0.000000000000000000e+00 2.017940000000000131e-04 -1.441514999999999984e-03 1.061903261500000006e+01
1.007090356800000031e+01 0.000000000000000000e+00 0.000000000000000000e+00 -1.147990089999999935e-01 1.009687849800000059e+01 0.000000000000000000e+00 1.972060000000000089e-04 -1.408741000000000030e-03 1.037760141200000064e+01
1.020029333299999941e+01 0.000000000000000000e+00 0.000000000000000000e+00 -1.162739329999999960e-01 1.022660198600000037e+01 0.000000000000000000e+00 1.997400000000000087e-04 -1.426841000000000090e-03 1.051093159400000054e+01
1.018664358700000072e+01 0.000000000000000000e+00 0.000000000000000000e+00 -1.161183380000000015e-01 1.021291703500000025e+01 0.000000000000000000e+00 1.994719999999999902e-04 -1.424930999999999941e-03 1.049686616099999981e+01
1.030057192800000010e+01 0.000000000000000000e+00 0.000000000000000000e+00 -1.174170159999999991e-01 1.032713921999999940e+01 0.000000000000000000e+00 2.017029999999999897e-04 -1.440868000000000097e-03 1.061426405899999992e+01
1.003330986199999941e+01 0.000000000000000000e+00 0.000000000000000000e+00 -1.143704749999999992e-01 1.005918783000000083e+01 0.000000000000000000e+00 1.964699999999999943e-04 -1.403483000000000074e-03 1.033886283200000022e+01
1.013162342899999935e+01 0.000000000000000000e+00 0.000000000000000000e+00 -1.154911589999999960e-01 1.015775496800000077e+01 0.000000000000000000e+00 1.983950000000000004e-04 -1.417234999999999979e-03 1.044017042699999998e+01
1.019069609099999951e+01 0.000000000000000000e+00 0.000000000000000000e+00 -1.161645330000000004e-01 1.021697999100000054e+01 0.000000000000000000e+00 1.995520000000000030e-04 -1.425498000000000086e-03 1.050104207899999942e+01
1.006162556900000027e+01 0.000000000000000000e+00 0.000000000000000000e+00 -1.146932479999999976e-01 1.008757656899999944e+01 0.000000000000000000e+00 1.970239999999999893e-04 -1.407442999999999975e-03 1.036804086200000086e+01
1.016769996300000045e+01 0.000000000000000000e+00 0.000000000000000000e+00 -1.159023990000000032e-01 1.019392455100000028e+01 0.000000000000000000e+00 1.991010000000000035e-04 -1.422281000000000066e-03 1.047734563000000030e+01
1.018826415000000019e+01 0.000000000000000000e+00 0.000000000000000000e+00 -1.161368110000000065e-01 1.021454177700000088e+01 0.000000000000000000e+00 1.995040000000000062e-04 -1.425157999999999937e-03 1.049853607600000061e+01
1.005933146399999956e+01 0.000000000000000000e+00 0.000000000000000000e+00 -1.146670979999999951e-01 1.008527654699999943e+01 0.000000000000000000e+00 1.969790000000000126e-04 -1.407122999999999924e-03 1.036567689299999984e+01
1.035022360199999980e+01 0.000000000000000000e+00 0.000000000000000000e+00 -1.179830000000000045e-01 1.037691895500000072e+01 0.000000000000000000e+00 2.026750000000000068e-04 -1.447813000000000051e-03 1.066542781799999950e+01
1.036370566899999979e+01 0.000000000000000000e+00 0.000000000000000000e+00 -1.181366830000000062e-01 1.039043579600000022e+01 0.000000000000000000e+00 2.029389999999999894e-04 -1.449699000000000040e-03 1.067932046600000007e+01
1.002957593100000011e+01 0.000000000000000000e+00 0.000000000000000000e+00 -1.143279120000000038e-01 1.005544426900000055e+01 0.000000000000000000e+00 1.963970000000000104e-04 -1.402959999999999971e-03 1.033501518899999994e+01
1.030511259100000032e+01 0.000000000000000000e+00 0.000000000000000000e+00 -1.174687759999999970e-01 1.033169159400000048e+01 0.000000000000000000e+00 2.017920000000000087e-04 -1.441503000000000012e-03 1.061894300199999996e+01
1.015721495100000027e+01 0.000000000000000000e+00 0.000000000000000000e+00 -1.157828790000000052e-01 1.018341249500000067e+01 0.000000000000000000e+00 1.988960000000000012e-04 -1.420814999999999969e-03 1.046654130900000013e+01
1.004684133199999962e+01 0.000000000000000000e+00 0.000000000000000000e+00 -1.145247219999999955e-01 1.007275420000000032e+01 0.000000000000000000e+00 1.967349999999999926e-04 -1.405374999999999940e-03 1.035280638799999942e+01
1.022291991099999997e+01 0.000000000000000000e+00 0.000000000000000000e+00 -1.165318550000000036e-01 1.024928692199999958e+01 0.000000000000000000e+00 2.001829999999999907e-04 -1.430005999999999942e-03 1.053424723800000073e+01
1.018788706800000021e+01 0.000000000000000000e+00 0.000000000000000000e+00 -1.161325130000000067e-01 1.021416372200000033e+01 0.000000000000000000e+00 1.994970000000000044e-04 -1.425105000000000078e-03 1.049814751000000079e+01
1.020259016099999982e+01 0.000000000000000000e+00 0.000000000000000000e+00 -1.163001149999999956e-01 1.022890473700000058e+01 0.000000000000000000e+00 1.997850000000000125e-04 -1.427162000000000049e-03 1.051329836899999925e+01
1.026789580400000013e+01 0.000000000000000000e+00 0.000000000000000000e+00 -1.170445390000000030e-01 1.029437881700000013e+01 0.000000000000000000e+00 2.010629999999999958e-04 -1.436297000000000008e-03 1.058059282099999976e+01
1.020402040299999946e+01 0.000000000000000000e+00 0.000000000000000000e+00 -1.163164180000000048e-01 1.023033866900000000e+01 0.000000000000000000e+00 1.998129999999999926e-04 -1.427361999999999945e-03 1.051477216800000036e+01
1.013369518100000022e+01 0.000000000000000000e+00 0.000000000000000000e+00 -1.155147750000000001e-01 1.015983206299999964e+01 0.000000000000000000e+00 1.984350000000000068e-04 -1.417524999999999992e-03 1.044230527100000039e+01
1.004501167799999983e+01 0.000000000000000000e+00 0.000000000000000000e+00 -1.145038649999999963e-01 1.007091982700000088e+01 0.000000000000000000e+00 1.966989999999999949e-04 -1.405119000000000029e-03 1.035092101400000075e+01
1.002152097699999977e+01 0.000000000000000000e+00 0.000000000000000000e+00 -1.142360929999999969e-01 1.004736853900000071e+01 0.000000000000000000e+00 1.962389999999999892e-04 -1.401834000000000023e-03 1.032671493099999971e+01
1.027941368900000008e+01 0.000000000000000000e+00 0.000000000000000000e+00 -1.171758319999999937e-01 1.030592640899999957e+01 0.000000000000000000e+00 2.012890000000000035e-04 -1.437907999999999895e-03 1.059246146999999993e+01
1.025835266200000007e+01 0.000000000000000000e+00 0.000000000000000000e+00 -1.169357560000000018e-01 1.028481106199999928e+01 0.000000000000000000e+00 2.008760000000000059e-04 -1.434961999999999913e-03 1.057075905399999982e+01
1.015644113799999992e+01 0.000000000000000000e+00 0.000000000000000000e+00 -1.157740579999999991e-01 1.018263668700000046e+01 0.000000000000000000e+00 1.988810000000000089e-04 -1.420706000000000096e-03 1.046574393100000044e+01
1.006198912099999987e+01 0.000000000000000000e+00 0.000000000000000000e+00 -1.146973929999999947e-01 1.008794105800000018e+01 0.000000000000000000e+00 1.970309999999999911e-04 -1.407494000000000019e-03 1.036841548499999988e+01
1.029705893100000047e+01 0.000000000000000000e+00 0.000000000000000000e+00 -1.173769709999999966e-01 1.032361716199999968e+01 0.000000000000000000e+00 2.016339999999999875e-04 -1.440375999999999939e-03 1.061064407699999990e+01
1.019741525499999923e+01 0.000000000000000000e+00 0.000000000000000000e+00 -1.162411260000000002e-01 1.022371648500000063e+01 0.000000000000000000e+00 1.996830000000000057e-04 -1.426437999999999925e-03 1.050796586799999943e+01
1.016648089699999957e+01 0.000000000000000000e+00 0.000000000000000000e+00 -1.158885020000000043e-01 1.019270234100000039e+01 0.000000000000000000e+00 1.990770000000000050e-04 -1.422110999999999991e-03 1.047608943900000078e+01
1.005165581299999999e+01 0.000000000000000000e+00 0.000000000000000000e+00 -1.145796020000000026e-01 1.007758109899999965e+01 0.000000000000000000e+00 1.968290000000000089e-04 -1.406048999999999927e-03 1.035776748900000044e+01
1.012906954900000045e+01 0.000000000000000000e+00 0.000000000000000000e+00 -1.154620479999999977e-01 1.015519450100000043e+01 0.000000000000000000e+00 1.983449999999999992e-04 -1.416878000000000104e-03 1.043753877199999991e+01
1.023291777899999921e+01 0.000000000000000000e+00 0.000000000000000000e+00 -1.166458219999999962e-01 1.025931057700000082e+01 0.000000000000000000e+00 2.003779999999999982e-04 -1.431404000000000053e-03 1.054454958100000006e+01
1.026563074399999920e+01 0.000000000000000000e+00 0.000000000000000000e+00 -1.170187189999999933e-01 1.029210791500000077e+01 0.000000000000000000e+00 2.010190000000000078e-04 -1.435979999999999895e-03 1.057825878100000061e+01
1.020559040899999914e+01 0.000000000000000000e+00 0.000000000000000000e+00 -1.163343149999999937e-01 1.023191272400000074e+01 0.000000000000000000e+00 1.998430000000000041e-04 -1.427581999999999940e-03 1.051638998600000008e+01
1.036801078699999934e+01 0.000000000000000000e+00 0.000000000000000000e+00 -1.181857570000000024e-01 1.039475201700000007e+01 0.000000000000000000e+00 2.030239999999999996e-04 -1.450300999999999977e-03 1.068375669099999925e+01
1.006841539000000019e+01 0.000000000000000000e+00 0.000000000000000000e+00 -1.147706460000000039e-01 1.009438390200000057e+01 0.000000000000000000e+00 1.971569999999999963e-04 -1.408392999999999971e-03 1.037503745899999963e+01
1.024135906000000062e+01 0.000000000000000000e+00 0.000000000000000000e+00 -1.167420440000000031e-01 1.026777362900000057e+01 0.000000000000000000e+00 2.005440000000000098e-04 -1.432585000000000108e-03 1.055324792999999950e+01
1.004191656000000066e+01 0.000000000000000000e+00 0.000000000000000000e+00 -1.144685839999999982e-01 1.006781672600000022e+01 0.000000000000000000e+00 1.966380000000000103e-04 -1.404686000000000042e-03 1.034773163700000076e+01
1.030195626899999972e+01 0.000000000000000000e+00 0.000000000000000000e+00 -1.174327970000000054e-01 1.032852713099999953e+01 0.000000000000000000e+00 2.017300000000000083e-04 -1.441060999999999991e-03 1.061569055800000072e+01
1.022797134800000052e+01 0.000000000000000000e+00 0.000000000000000000e+00 -1.165894370000000041e-01 1.025435138799999990e+01 0.000000000000000000e+00 2.002820000000000045e-04 -1.430711999999999999e-03 1.053945251100000036e+01
1.019339185199999953e+01 0.000000000000000000e+00 0.000000000000000000e+00 -1.161952619999999936e-01 1.021968270400000023e+01 0.000000000000000000e+00 1.996040000000000086e-04 -1.425875000000000059e-03 1.050381993599999930e+01
1.025034225799999987e+01 0.000000000000000000e+00 0.000000000000000000e+00 -1.168444450000000051e-01 1.027677999800000030e+01 0.000000000000000000e+00 2.007199999999999891e-04 -1.433842000000000059e-03 1.056250470200000002e+01
1.020238838699999917e+01 0.000000000000000000e+00 0.000000000000000000e+00 -1.162978149999999988e-01 1.022870244299999953e+01 0.000000000000000000e+00 1.997810000000000037e-04 -1.427134000000000041e-03 1.051309045100000006e+01
1.023366740500000027e+01 0.000000000000000000e+00 0.000000000000000000e+00 -1.166543669999999949e-01 1.026006213600000017e+01 0.000000000000000000e+00 2.003929999999999904e-04 -1.431509000000000080e-03 1.054532203499999987e+01
1.010677262599999970e+01 0.000000000000000000e+00 0.000000000000000000e+00 -1.152078829999999970e-01 1.013284007000000031e+01 0.000000000000000000e+00 1.979080000000000032e-04 -1.413758999999999892e-03 1.041456282100000053e+01
1.033711333499999974e+01 0.000000000000000000e+00 0.000000000000000000e+00 -1.178335550000000065e-01 1.036377487500000072e+01 0.000000000000000000e+00 2.024189999999999876e-04 -1.445979000000000014e-03 1.065191829299999959e+01
1.013899058600000025e+01 0.000000000000000000e+00 0.000000000000000000e+00 -1.155751379999999939e-01 1.016514112599999997e+01 0.000000000000000000e+00 1.985389999999999909e-04 -1.418264999999999934e-03 1.044776194199999964e+01
1.033868538299999962e+01 0.000000000000000000e+00 0.000000000000000000e+00 -1.178514749999999972e-01 1.036535097700000030e+01 0.000000000000000000e+00 2.024499999999999878e-04 -1.446199000000000009e-03 1.065353821499999931e+01
1.017983828700000082e+01 0.000000000000000000e+00 0.000000000000000000e+00 -1.160407640000000046e-01 1.020609418199999929e+01 0.000000000000000000e+00 1.993390000000000103e-04 -1.423978999999999913e-03 1.048985361299999930e+01
1.007838238899999972e+01 0.000000000000000000e+00 0.000000000000000000e+00 -1.148842610000000014e-01 1.010437660899999912e+01 0.000000000000000000e+00 1.973520000000000038e-04 -1.409787000000000019e-03 1.038530799199999954e+01
1.014875413899999934e+01 0.000000000000000000e+00 0.000000000000000000e+00 -1.156864340000000047e-01 1.017492986200000082e+01 0.000000000000000000e+00 1.987299999999999896e-04 -1.419630999999999975e-03 1.045782283299999982e+01
1.018000736199999956e+01 0.000000000000000000e+00 0.000000000000000000e+00 -1.160426920000000028e-01 1.020626369300000036e+01 0.000000000000000000e+00 1.993420000000000033e-04 -1.424003000000000074e-03 1.049002783699999952e+01
1.028727582600000012e+01 0.000000000000000000e+00 0.000000000000000000e+00 -1.172654530000000056e-01 1.031380882400000054e+01 0.000000000000000000e+00 2.014429999999999888e-04 -1.439008000000000084e-03 1.060056303900000074e+01
1.012005878599999953e+01 0.000000000000000000e+00 0.000000000000000000e+00 -1.153593329999999945e-01 1.014616049700000033e+01 0.000000000000000000e+00 1.981680000000000041e-04 -1.415617000000000091e-03 1.042825359599999935e+01
1.034904663200000030e+01 0.000000000000000000e+00 0.000000000000000000e+00 -1.179695830000000029e-01 1.037573895000000057e+01 0.000000000000000000e+00 2.026519999999999971e-04 -1.447649000000000071e-03 1.066421500400000077e+01
1.007017853800000040e+01 0.000000000000000000e+00 0.000000000000000000e+00 -1.147907440000000001e-01 1.009615159800000050e+01 0.000000000000000000e+00 1.971920000000000053e-04 -1.408640000000000066e-03 1.037685430199999992e+01
1.032706282600000058e+01 0.000000000000000000e+00 0.000000000000000000e+00 -1.177189879999999966e-01 1.035369844300000075e+01 0.000000000000000000e+00 2.022220000000000029e-04 -1.444572999999999994e-03 1.064156170699999926e+01
1.030481523199999927e+01 0.000000000000000000e+00 0.000000000000000000e+00 -1.174653860000000050e-01 1.033139346799999991e+01 0.000000000000000000e+00 2.017859999999999955e-04 -1.441461000000000001e-03 1.061863658799999932e+01
1.033054449800000008e+01 0.000000000000000000e+00 0.000000000000000000e+00 -1.177586760000000066e-01 1.035718909500000073e+01 0.000000000000000000e+00 2.022899999999999894e-04 -1.445059999999999964e-03 1.064514940900000006e+01
1.011643253199999926e+01 0.000000000000000000e+00 0.000000000000000000e+00 -1.153179970000000054e-01 1.014252489000000068e+01 0.000000000000000000e+00 1.980969999999999975e-04 -1.415110000000000022e-03 1.042451690799999930e+01
1.024911981900000058e+01 0.000000000000000000e+00 0.000000000000000000e+00 -1.168305099999999985e-01 1.027555440599999947e+01 0.000000000000000000e+00 2.006959999999999907e-04 -1.433671000000000077e-03 1.056124503500000067e+01
1.033643660299999922e+01 0.000000000000000000e+00 0.000000000000000000e+00 -1.178258410000000006e-01 1.036309639699999963e+01 0.000000000000000000e+00 2.024050000000000111e-04 -1.445885000000000052e-03 1.065122095199999919e+01
1.009246052599999999e+01 0.000000000000000000e+00 0.000000000000000000e+00 -1.150447379999999936e-01 1.011849105599999987e+01 0.000000000000000000e+00 1.976280000000000126e-04 -1.411757000000000029e-03 1.039981486299999958e+01
1.014126948700000064e+01 0.000000000000000000e+00 0.000000000000000000e+00 -1.156011160000000038e-01 1.016742590499999999e+01 0.000000000000000000e+00 1.985839999999999947e-04 -1.418584000000000078e-03 1.045011024399999933e+01
1.025905815800000020e+01 0.000000000000000000e+00 0.000000000000000000e+00 -1.169437980000000016e-01 1.028551837800000079e+01 0.000000000000000000e+00 2.008900000000000095e-04 -1.435061000000000062e-03 1.057148603499999950e+01
1.013671384000000053e+01 0.000000000000000000e+00 0.000000000000000000e+00 -1.155491849999999987e-01 1.016285850799999935e+01 0.000000000000000000e+00 1.984950000000000028e-04 -1.417946999999999914e-03 1.044541586000000066e+01
1.022972065299999933e+01 0.000000000000000000e+00 0.000000000000000000e+00 -1.166093770000000002e-01 1.025610520500000078e+01 0.000000000000000000e+00 2.003159999999999977e-04 -1.430957000000000062e-03 1.054125508999999994e+01
1.011388116400000037e+01 0.000000000000000000e+00 0.000000000000000000e+00 -1.152889140000000062e-01 1.013996694199999915e+01 0.000000000000000000e+00 1.980469999999999963e-04 -1.414752999999999931e-03 1.042188784100000021e+01
1.012462117799999994e+01 0.000000000000000000e+00 0.000000000000000000e+00 -1.154113400000000011e-01 1.015073465599999913e+01 0.000000000000000000e+00 1.982580000000000117e-04 -1.416254999999999944e-03 1.043295492999999929e+01
1.025329780999999940e+01 0.000000000000000000e+00 0.000000000000000000e+00 -1.168781349999999941e-01 1.027974317299999996e+01 0.000000000000000000e+00 2.007769999999999922e-04 -1.434254999999999948e-03 1.056555026200000036e+01
1.019753295599999987e+01 0.000000000000000000e+00 0.000000000000000000e+00 -1.162424670000000021e-01 1.022383448899999969e+01 0.000000000000000000e+00 1.996850000000000101e-04 -1.426453999999999960e-03 1.050808715199999988e+01
1.037703429799999988e+01 0.000000000000000000e+00 0.000000000000000000e+00 -1.182886169999999987e-01 1.040379880200000073e+01 0.000000000000000000e+00 2.032000000000000061e-04 -1.451564000000000023e-03 1.069305500299999956e+01
1.029329912100000044e+01 0.000000000000000000e+00 0.000000000000000000e+00 -1.173341130000000038e-01 1.031984765400000015e+01 0.000000000000000000e+00 2.015610000000000036e-04 -1.439849999999999897e-03 1.060676976699999940e+01
1.014537996399999997e+01 0.000000000000000000e+00 0.000000000000000000e+00 -1.156479710000000022e-01 1.017154698300000071e+01 0.000000000000000000e+00 1.986640000000000075e-04 -1.419158999999999915e-03 1.045434590099999994e+01
1.022951300699999955e+01 0.000000000000000000e+00 0.000000000000000000e+00 -1.166070099999999971e-01 1.025589702299999928e+01 0.000000000000000000e+00 2.003119999999999890e-04 -1.430927999999999931e-03 1.054104111999999915e+01
1.034602190400000055e+01 0.000000000000000000e+00 0.000000000000000000e+00 -1.179351039999999989e-01 1.037270642100000018e+01 0.000000000000000000e+00 2.025929999999999897e-04 -1.447224999999999900e-03 1.066109816200000004e+01
1.014021964900000050e+01 0.000000000000000000e+00 0.000000000000000000e+00 -1.155891480000000027e-01 1.016637335899999961e+01 0.000000000000000000e+00 1.985629999999999893e-04 -1.418437000000000040e-03 1.044902843400000059e+01
1.025528689200000088e+01 0.000000000000000000e+00 0.000000000000000000e+00 -1.169008089999999944e-01 1.028173738399999948e+01 0.000000000000000000e+00 2.008160000000000099e-04 -1.434532999999999989e-03 1.056759991899999918e+01
1.014598585200000080e+01 0.000000000000000000e+00 0.000000000000000000e+00 -1.156548780000000026e-01 1.017215443499999949e+01 0.000000000000000000e+00 1.986760000000000067e-04 -1.419244000000000061e-03 1.045497024099999983e+01
1.021000280700000040e+01 0.000000000000000000e+00 0.000000000000000000e+00 -1.163846119999999984e-01 1.023633650200000034e+01 0.000000000000000000e+00 1.999299999999999916e-04 -1.428199000000000005e-03 1.052093675899999958e+01
1.030764562899999959e+01 0.000000000000000000e+00 0.000000000000000000e+00 -1.174976499999999952e-01 1.033423116500000027e+01 0.000000000000000000e+00 2.018420000000000099e-04 -1.441856999999999948e-03 1.062155318199999954e+01
1.032517419700000083e+01 0.000000000000000000e+00 0.000000000000000000e+00 -1.176974600000000037e-01 1.035180494299999943e+01 0.000000000000000000e+00 2.021849999999999895e-04 -1.444308999999999957e-03 1.063961556099999939e+01
1.028028772300000071e+01 0.000000000000000000e+00 0.000000000000000000e+00 -1.171857949999999954e-01 1.030680269700000018e+01 0.000000000000000000e+00 2.013060000000000001e-04 -1.438030000000000081e-03 1.059336212200000027e+01
1.018897056700000014e+01 0.000000000000000000e+00 0.000000000000000000e+00 -1.161448640000000004e-01 1.021525001600000060e+01 0.000000000000000000e+00 1.995180000000000098e-04 -1.425257000000000086e-03 1.049926400600000065e+01
1.012396123999999986e+01 0.000000000000000000e+00 0.000000000000000000e+00 -1.154038180000000052e-01 1.015007301700000042e+01 0.000000000000000000e+00 1.982449999999999967e-04 -1.416163000000000014e-03 1.043227489500000083e+01
1.019606204299999952e+01 0.000000000000000000e+00 0.000000000000000000e+00 -1.162257000000000012e-01 1.022235978199999984e+01 0.000000000000000000e+00 1.996570000000000029e-04 -1.426249000000000093e-03 1.050657144500000051e+01
1.030451341800000087e+01 0.000000000000000000e+00 0.000000000000000000e+00 -1.174619459999999976e-01 1.033109087599999931e+01 0.000000000000000000e+00 2.017800000000000095e-04 -1.441418999999999990e-03 1.061832558300000073e+01
1.012782071400000028e+01 0.000000000000000000e+00 0.000000000000000000e+00 -1.154478119999999969e-01 1.015394244500000021e+01 0.000000000000000000e+00 1.983200000000000121e-04 -1.416703000000000059e-03 1.043625190500000066e+01
