-9.098700305999999500e+02
-9.062425664999999526e+02
-9.032912127399999918e+02
-9.034466863300000341e+02
-9.199715710299999500e+02
-9.068926994500000092e+02
-9.107515150100000483e+02
-9.064710218699999587e+02
-9.087455277000000251e+02
-9.181999393400000145e+02
-9.108658118399999921e+02
-9.068058358800000178e+02
-9.053915125199999920e+02
-9.221955018200000040e+02
-9.152407275399999662e+02
-9.017377379399999882e+02
-9.188458629900000005e+02
-9.103767521400000078e+02
-9.089357041099999606e+02
-9.193929201299999932e+02
-9.072767831700000443e+02
-9.042145840499999849e+02
-9.214787752400000045e+02
-9.116617459000000281e+02
-9.192045161999999436e+02
-9.137487701500000412e+02
-9.102616282400000500e+02
-9.087678225399999974e+02
-9.040801589000000149e+02
-9.052589270199999874e+02
-9.111785258899999462e+02
-9.149589583199999652e+02
-9.183363964999999780e+02
-9.133849122000000307e+02
-9.046746074999999792e+02
-9.118996060800000123e+02
-9.193733015699999669e+02
-9.155980889100000013e+02
-9.050818519800000104e+02
-9.057140784399999802e+02
-9.063090257300000303e+02
-9.145724037799999451e+02
-9.063549213400000326e+02
-9.089679365099999586e+02
-9.041045123000000103e+02
-9.116509558200000356e+02
-9.039711374199999909e+02
-9.142718800799999599e+02
-9.152301780699999654e+02
-9.189216937200000075e+02
-9.026662186999999449e+02
-9.099247526399999515e+02
-9.152354327599999806e+02
-9.112067181800000526e+02
-9.089693988799999715e+02
-9.112101231499999585e+02
-9.064093091800000366e+02
-9.045194731999999931e+02
-9.126078192700000500e+02
-9.028188516699999582e+02
-9.191341539600000488e+02
-9.143293595400000413e+02
-9.081411597300000267e+02
-9.102054415899999640e+02
-9.106059749800000418e+02
-9.135329403499999898e+02
-9.045922451100000217e+02
-9.137807052299999668e+02
-9.062212672099999509e+02
-9.043695920999999771e+02
-9.048853498400000035e+02
-9.137239058500000510e+02
-9.150287380299999995e+02
-9.090243041500000345e+02
-9.136687410399999862e+02
-9.053261606900000515e+02
-9.193896613800000068e+02
-9.207323813100000507e+02
-9.111993781600000375e+02
-9.183947601600000326e+02
-9.153906478899999684e+02
-9.108973785900000166e+02
-9.073478360599999633e+02
-9.042855273999999781e+02
-9.074109183199999507e+02
-9.207312870099999600e+02
-9.139240313000000242e+02
-9.077750409799999716e+02
-9.070616049100000282e+02
-9.043552244100000053e+02
-9.191794592100000045e+02
-9.115392549499999859e+02
-9.020929223199999569e+02
-9.065005463400000281e+02
-9.079617253599999458e+02
-9.162353723700000501e+02
-9.069342572799999971e+02
-9.074974763799999664e+02
-9.055071958099999847e+02
-9.142138490800000454e+02
