1.009235182783823053e-03 -6.964431866457050624e-05 1.920104546868502365e-04 1.004251721662659811e-03 -7.466082203484387459e-05 2.030104460136599744e-04 -2.154406030193464631e-04 -4.677235699476494269e-04 -6.089983650931147293e-04 -2.164274100615917989e-04 -4.717267835407601634e-04 -5.979983426936235627e-04 -7.605948574625157749e-04 -1.205359102428702649e-04 -8.900064927535629314e-04 -7.565982524140606093e-04 -1.195225804037303516e-04 -8.850064616812824275e-04 -5.983550256532632183e-04 7.070164938313279164e-04 1.759884675935864055e-04 -5.943451351100978355e-04 7.040298537786817638e-04 1.819885308455665939e-04 3.918743248627570928e-04 4.129500261446721293e-05 -9.629964881931966231e-04 3.908675454510300291e-04 4.329177991481524809e-05 -9.489965140636155878e-04 3.616318526494396676e-04 -4.907994952420733584e-04 1.510074786871834105e-04 3.596184703356517442e-04 -4.868060848644955858e-04 1.610074269477886316e-04 -8.657777363543257962e-04 -6.887652171854544993e-05 1.929920619847726052e-04 -8.597778479468883147e-04 -6.885651466770592024e-05 2.009921206605707982e-04 2.696971071112561741e-04 6.948958800959480035e-04 -5.450029231494979767e-04 2.756936520813078732e-04 6.959158976476239504e-04 -5.350028725188050614e-04 -5.832050028204444504e-04 9.640647139006682268e-04 -2.660134434513196670e-04 -5.922016488916961169e-04 9.630348210219001875e-04 -2.640135234211945245e-04 3.584010210963778993e-04 1.686197559889864679e-03 -3.750099959981612659e-04 3.523944065897983567e-04 1.688177605890279478e-03 -3.750100707644907325e-04 -1.726510952502778150e-03 1.522583828704631218e-04 -4.770181503188547544e-04 -1.720507632403121649e-03 1.512783073089071057e-04 -4.800180835972296407e-04 2.652640356445979232e-04 -3.821142409319344723e-04 7.680056629156800218e-04 2.742739868227448384e-04 -3.850843339697434089e-04 7.650057750654147603e-04 2.071315089460816581e-03 -9.011918722906880571e-05 -4.199789664555879181e-04 2.079305162048284989e-03 -8.709268531025740731e-05 -4.289789123544483361e-04 -9.524410860739466870e-05 6.726934483456254148e-04 7.839936762043775128e-04 -8.925400535980030053e-05 6.757132865890871920e-04 7.729937107468642802e-04 4.073442429494231339e-04 -1.004653828909984154e-03 -2.759879558829878335e-04 4.093509089701615118e-04 -1.006647194248702680e-03 -2.789879202340442570e-04 -4.144696937080443963e-04 -1.362388650081844876e-03 -4.349931483664191945e-04 -4.114629939869059931e-04 -1.364378723644865893e-03 -4.419931029377482316e-04 -1.462795102676573648e-03 2.381355394187803910e-04 -4.600162523771946042e-04 -1.458788477122053596e-03 2.361488457678067991e-04 -4.600161971696783113e-04 1.701659448101133570e-03 -1.943484015655043222e-04 -4.159817562070228366e-04 1.699652821304765580e-03 -1.923550682763675620e-04 -4.169817918556457492e-04 -5.771577536402882139e-04 3.500761367660879843e-04 -9.230084646848193877e-04 -5.821643540586529794e-04 3.520594905669913784e-04 -9.250085296715820438e-04 5.405545580741412089e-04 -1.632116664120575019e-04 -9.289933916300316006e-04 5.375579376956231108e-04 -1.642216644135226927e-04 -9.329934129229857515e-04 1.703006210810420029e-04 2.115648449116771309e-04 -2.950000251812012688e-04 1.693006364111049084e-04 2.115615130740023677e-04 -2.960000349605276760e-04 8.707659594551581334e-06 8.802926005920411819e-05 -2.100061993881196097e-05 8.701031556335374979e-06 9.002923298650399248e-05 -2.300063602854149323e-05 6.161174006739272912e-07 1.160013049145254484e-04 -1.720009234204162294e-04 1.160610477358353369e-05 1.190378343959430239e-04 -1.740008399816180625e-04 7.369153410034932526e-05 9.224730573019788516e-05 2.309999835226324381e-04 7.769817926705455688e-05 9.026059605443335616e-05 2.290000387303090901e-04 1.688449266263657378e-05 3.206372370421678767e-05 9.229999087376688583e-04 1.888779563380403625e-05 3.107038489112544664e-05 9.239999363413467981e-04 -6.744949448927549244e-05 1.327829388747212307e-04 7.949982747383375426e-04 -7.446609455967178053e-05 1.377596605027840519e-04 7.969981660576061847e-04 -3.317746336550462789e-05 4.790483949799403680e-05 1.845999290974214202e-03 -3.819407448384156686e-05 5.288820877661547454e-05 1.847999201852296288e-03 4.435078039567780976e-04 -1.525253726670095368e-04 1.650055711854176452e-04 4.445111614823788197e-04 -1.535220753673575218e-04 1.610055890100899230e-04 -4.590221397621970520e-04 3.064767478216330393e-04 9.499304318111523532e-05 -4.590221299561044821e-04 3.064767398092376046e-04 9.399304318119540132e-05 -7.703530236506940217e-04 1.044413935294440289e-04 1.659916090344959482e-04 -7.553829424883143611e-04 1.134911370938784060e-04 1.579916833217319470e-04 5.072683115178952019e-04 -8.031318979698391712e-05 1.470056178328474838e-04 5.232416815632276496e-04 -7.226009284612923867e-05 1.420057099441945035e-04 -4.638372049188727074e-04 1.756465076422735134e-03 -3.620186219524132117e-04 -4.608304757794565404e-04 1.754474978822527596e-03 -3.720185765235016831e-04 -4.660489417447089564e-04 6.184467485048365971e-04 -9.450095254347610401e-04 -4.660554717219994570e-04 6.204466413081818812e-04 -9.570095415236888311e-04 4.530364348996134775e-04 -1.513505265673322593e-03 -3.379834307071491787e-04 4.480198826178319240e-04 -1.508521944469073993e-03 -3.419835198285862314e-04 5.599339735801600474e-04 -5.781496492770122784e-04 -9.419898769475182473e-04 5.579274056203473685e-04 -5.761563640622483157e-04 -9.489899125956599742e-04 -1.646817869095155290e-03 1.446534867051365355e-03 7.597226094820223885e-05 -1.649814391412747364e-03 1.445524788925945520e-03 6.197223965604986996e-05 3.952164319177074833e-04 5.353218810003430514e-04 6.579995863710633988e-04 3.902198912297780999e-04 5.343051792615511339e-04 6.469995455198573582e-04 -3.609064136843260291e-04 -3.311970911773277123e-04 5.379991146435048098e-04 -3.678996881417621965e-04 -3.332203789559554400e-04 5.339990622778692303e-04 1.703012021605266680e-03 -1.204345792332397937e-03 4.302634959175623020e-05 1.697022104673431234e-03 -1.207365782811373840e-03 3.502631505079286067e-05 2.441101096964585332e-04 -3.331915230924953060e-04 -1.319949365819999404e-04 2.451101532029511284e-04 -3.331882393291933403e-04 -1.369949268021924287e-04 3.163545897891787860e-04 7.940623376968681917e-04 8.009967399251419901e-04 3.203612741802543107e-04 7.920755959715217480e-04 7.949967951331394144e-04 -3.839473528556876908e-04 -6.202739124663176349e-04 7.070012049132850867e-04 -3.889572869053455604e-04 -6.172905561769734479e-04 7.060011318814975222e-04 -3.028553455445774211e-04 5.579956154235762899e-04 -1.030074407173536550e-04 -3.088652544580797882e-04 5.609756318628502519e-04 -1.060075235283875828e-04 -7.214343609660686858e-05 -5.592413528249083219e-04 1.900037734329015221e-04 -7.613340330075326462e-05 -5.622546636037435578e-04 1.860037584504306487e-04 -3.765411738195946620e-04 4.627518116572702182e-04 1.009925998599708842e-04 -3.775344912269452502e-04 4.607484748427137337e-04 9.799260617069471379e-05 -8.119594568987957984e-05 6.597359433520708820e-04 2.709939177414860765e-04 -8.618593678833337708e-05 6.567193327851428113e-04 2.699938929793680776e-04 2.045927849799087338e-04 -4.793213620364012925e-04 1.560058467806063219e-04 2.035961437473574759e-04 -4.803247043749124187e-04 1.530058450463851923e-04
-5.272424336609853740e-02 -4.572056512325583383e-02 -8.253150688224367149e-03 -3.034708313480123654e-02 9.965016790650796721e-03 -2.111337743165479786e-02 -1.144120716943437290e-02 9.047081497204501749e-03 7.469815318267477786e-03 -3.499143015780720178e-03 1.117042716586218003e-02 -4.971238148401893858e-04 1.130950803024510440e-02 -2.211547997586287354e-02 6.384288100566107640e-03 7.632349113706471400e-03 1.065665138409574789e-02 2.783398946044842934e-02 2.645776721713316224e-02 1.190385259385613563e-02 -1.916183593259628698e-02 -3.054687947082774038e-02 3.571666052480120673e-02 -5.325857215795358392e-04 2.074061344898809126e-02 4.416892822896038157e-02 -3.156415051707556207e-02 -1.628099712042437378e-02 -7.006991669342793605e-03 2.016489649144011936e-02 2.876062906234819194e-02 -1.694462106015140815e-02 -1.525958220482743870e-02 1.218526023484302551e-03 -1.076579186267887303e-02 2.702809821092799422e-02 -5.816883507952173155e-02 2.690687141786596293e-02 8.182214003179722264e-03 -3.374532392897067190e-02 2.536284152249692475e-02 -1.678353412823253149e-02 9.118760571497588896e-03 -2.906746937380827022e-03 -4.977887290982807578e-03 -1.997002364107118566e-02 -2.835938957536430355e-02 1.789303140017857799e-02 3.014678693851605487e-02 -2.208409762967509377e-02 -2.216152743306960826e-02 3.918260570086686684e-02 1.528416331689299267e-02 -1.954573823606921626e-02 -1.009521927480745013e-02 1.839496010937698807e-03 5.045886266980305346e-03 6.906995857000834856e-03 6.388943150799281708e-04 -8.310937389099491354e-03 -3.275474364734761584e-02 -1.275098691786076197e-02 -5.648219030551552070e-03 -1.892090253414677875e-02 -2.020204571981788072e-02 -5.513023673784326652e-03 2.507230660247756690e-02 5.832363701384041949e-02 -2.626221450895783582e-03 -4.057290363108592853e-04 1.399589892214590271e-02 2.115388388240252784e-02 -5.238450312097792105e-02 -1.832611405753927988e-02 1.294063314982368817e-02 -2.210323785968081999e-03 -9.574288693693840460e-03 1.378805503945317382e-02 -2.835936168495586593e-02 1.887024054465209766e-02 4.945557071360946050e-02 3.719179032582276001e-02 3.333847727828846697e-02 -4.050890241817323156e-02 -2.148850464417321766e-03 2.676191220154529316e-02 -1.158823549977972163e-02 2.637579249721803271e-02 3.014197204027041152e-02 1.703101713542834808e-02 2.204043578092260494e-02 -2.628683825764153992e-02 6.015426751579655215e-03 1.142842857492024598e-02 -3.107026230182217616e-02 -9.542638985307711277e-03 -6.081984346694162963e-02 3.140910873274704168e-02 1.115715193367873385e-02 -4.949735820041254591e-02 3.960125160761108348e-02 -5.551080268101636628e-02 6.613776057494013920e-03 -4.121802911569132782e-02 2.679139511259803069e-02 8.034263715287877361e-02 -3.852129565273520323e-02 -1.587890350608088183e-02 -5.349801991017871447e-03 3.644956359964679569e-03 -3.504908166829558830e-02 -1.369083342453127810e-03 4.809549745746093986e-03 9.169948039362657913e-03 2.786571705675455063e-02 -6.513379641783156870e-02 -7.134204869035743433e-03 6.174579055274624639e-02 -5.289775280169625726e-02 3.818402932571456077e-02 -4.961448384413220947e-02 -5.799325554144804662e-02 -3.147021859576133642e-03 6.056742350632539872e-03 -1.152127282450673626e-02 -4.235384829742554896e-02 -9.427549928620665085e-03 -2.092540977546980541e-02 5.139075215643120441e-03 1.352397025763495695e-03 -1.036949893137328535e-02 7.858096346886717445e-03 9.649126616517164634e-02 5.926328278824037621e-02 2.925047136377556534e-02 1.296749080876614772e-02 9.436331576215095662e-03 2.209805155456678535e-02 -3.453962379570609670e-02 7.438819572854299747e-03 7.236260170428930605e-02 -3.068525016767097852e-02 -6.836192254097952364e-03 -2.014724612974337636e-02 -7.550879631831021455e-03 3.966013326058382554e-02 1.489608182822795652e-03 1.115912019384014946e-03 1.542066147266851414e-02 -1.650811261502511257e-02 5.013935908192677926e-02 -1.565048351825113968e-02 -6.405382931453595073e-03 -1.867756607646754372e-02 1.285776460705624624e-02 -2.802428617768382146e-02 3.165789253406940413e-03 3.487397285797665114e-02 3.203075162252864289e-02 8.589768030325675360e-03 9.220299708229923868e-03 -3.755298964763804925e-02 -3.620381164580099148e-02 1.272698965996106948e-02 3.163454301093361620e-02 -1.002072862653021401e-03 -1.800298536432454752e-03 5.236004598704392318e-03 -8.955346264766395753e-03 1.772265255514419990e-02 3.985877018534032812e-02 1.606321549164883671e-03 3.577734728776481993e-02 -2.355227091240580384e-02 -5.034458278026177763e-02 -4.188015087225091526e-02 5.184184188084824813e-02 8.788606816541508909e-03 5.248150365853619659e-02 2.436656793495760298e-04 1.976973270041578606e-02 5.251675039256449573e-03 -8.092848215317118010e-03 -1.826127559452616483e-02 -2.234128692896725915e-02 -5.795300006917950691e-02 -2.518290853719155203e-02 2.193701710352639282e-03 4.887273548118051258e-02 1.710581431517251699e-02 -1.463033670179199547e-03 1.462717946477587634e-02 -1.408550097623466335e-02 1.070112168295443179e-02 -1.487722386653823371e-02 1.857988858410969391e-02 1.905875142238533729e-02 -1.369297051124390707e-02 3.112311541595404879e-02 -1.917283608111386428e-02 -2.212154118527780156e-02 5.192696039312695577e-02 -4.958356788072289939e-02 1.365790648483032436e-02 -3.629623848930895597e-02 4.841372316905786372e-02 1.219225616680677700e-02 1.132686527903731949e-02 -1.193851710277208517e-02 -1.238979327258358035e-02 2.128680477472486357e-02 4.069302472642252061e-02 5.757882692233050152e-03 1.875248926887034331e-02 -1.944258156270312066e-02 2.434333967224997300e-02 2.686656769906986195e-02 2.575641809467129131e-02 -2.977942914796333652e-03 -4.300313551869890225e-04 -2.078145947858789366e-02 1.052416229318825849e-02 4.938838480554599147e-02 6.623091304136673532e-03 -1.288256876078614117e-02 1.977406754046746179e-02 5.478298917498145015e-02 -4.846245037025812864e-03 -9.268736123352154521e-03 -1.162560336990976426e-02 3.337600226152331873e-02 -1.562859245701471748e-03 -1.116827938000511389e-02 -2.860925841100753989e-03 2.857874869411300076e-02 -4.696068138417745785e-02 -5.130434349070753242e-02 1.718182792798767650e-02 -1.436695333050949479e-02 2.068283600472832235e-03 2.955423803892654952e-02 9.917256634647264590e-03 -3.886789649699560947e-03 -4.079166503742307631e-02 -1.275479104856429811e-02 -1.693329781177134452e-02 3.188467120494645202e-02 2.149514619530672535e-02 6.014140436907819236e-03 1.628909483078786824e-05 2.725430542264986600e-02 1.252078178846305519e-02 2.995399811169045107e-02 -9.718282190796151410e-02 1.902707240040574233e-02 -5.163484103549619703e-02 1.108120881610477615e-02 -2.824259512532301467e-02 -4.602060133433796829e-02 -3.327219915457032412e-02 -6.330184692766891580e-03 9.292149579298213113e-03 2.383575051413011972e-02 -3.314309986443775280e-02 -1.583143380986129153e-02 -2.558444587007237606e-02 3.932604975134570274e-02 -1.083859335671697420e-02 1.015684452361712876e-02 -2.311918766675852624e-02 -1.470641953924625191e-02 -7.430435797069594997e-04 -1.962813826052619420e-02 -1.253546305449668163e-02 -1.070275122941280986e-02 -3.284037169499055050e-03 -1.136581146256719979e-02 -6.750661675331588209e-03 1.909094263630230909e-02 -2.776327201915732359e-02 -2.669654840031050747e-02 -1.499905834711481867e-02
-1.060912426100489997e-01 -9.061525611531497104e-02 -1.576331429654294694e-02 -6.166568312523224710e-02 2.038480686068551082e-02 -4.223676803391798740e-02 -2.227098294633236483e-02 1.826619638063076839e-02 1.495763525388971345e-02 -6.594056637995166295e-03 2.287320365988148793e-02 -6.462479311349655399e-04 2.380984702498225095e-02 -4.417999643956044276e-02 1.340458747024207524e-02 1.563893295362874664e-02 2.184355360250987005e-02 5.616697834213785906e-02 5.337116846477819865e-02 2.331821320691167959e-02 -3.878666347523689051e-02 -6.023152640759937143e-02 7.046417625655822248e-02 -1.730155222908993278e-03 4.050620426645250988e-02 8.803862374254962930e-02 -6.191730819764536264e-02 -3.308391846984858747e-02 -1.404070989647883579e-02 4.137078807907014488e-02 5.711622437575884087e-02 -3.327758625800823072e-02 -3.067517328229448295e-02 1.498963692496459556e-03 -2.060170287346241302e-02 5.328017977223939439e-02 -1.153361379340135384e-01 5.365706601315758939e-02 1.575843908278523609e-02 -6.673749476359729094e-02 5.098418112880902936e-02 -3.439906294223168265e-02 1.792826212946716652e-02 -6.639523987329588352e-03 -9.660770996084548992e-03 -3.971413234387619756e-02 -5.759802588949254620e-02 3.668307206064446574e-02 6.028375103192281509e-02 -4.452422479907888753e-02 -4.369205210976288140e-02 7.905347737926318730e-02 2.958660961078922458e-02 -3.900146185702629831e-02 -2.066806954189578591e-02 2.061399595248234601e-03 1.059778081109768143e-02 1.323785065538575327e-02 -4.871326841402682920e-04 -1.619586628660983976e-02 -6.396012806787625127e-02 -2.590982221852381265e-02 -1.079041960005998856e-02 -3.612060873367043540e-02 -4.046136787982139438e-02 -1.066303001040746178e-02 5.013677305078288043e-02 1.159982422271525898e-01 -5.520437778394875900e-03 -1.128823846424566006e-03 2.870474224002347863e-02 4.172675894024786836e-02 -1.064981222582030568e-01 -3.632096910786680038e-02 2.643524668964190166e-02 -6.400058707403014774e-03 -1.902915326550600264e-02 2.790908971177091455e-02 -5.740262275221374305e-02 3.741020067247803615e-02 9.823613736712145939e-02 7.549869953455101701e-02 6.664665097836856844e-02 -8.224479365868157810e-02 -4.590146234492452175e-03 5.485886488132750427e-02 -2.253748456412622836e-02 5.223016901213397428e-02 6.131021825488751353e-02 3.426102093490471928e-02 4.438783171584333165e-02 -5.165964832841665050e-02 1.238584918971215830e-02 2.329784708296318146e-02 -6.063404620448988036e-02 -1.855028571668511719e-02 -1.207452417121464144e-01 6.298419796689114225e-02 2.313531130853452994e-02 -9.688709248143116681e-02 7.841450989169301833e-02 -1.103185783807069664e-01 1.163634672707007829e-02 -8.237834288337457511e-02 5.406977415928957559e-02 1.587875434277671027e-01 -7.652589372344759111e-02 -3.145282976144735121e-02 -9.966346316320805546e-03 6.910354400286768638e-03 -6.928315310496192814e-02 -2.197376245750977310e-03 9.378904635773364917e-03 1.945590330639208193e-02 5.510879073222338387e-02 -1.303786555251733037e-01 -1.333841495381736866e-02 1.233944689004814882e-01 -1.060668188082096314e-01 7.774505987311694510e-02 -9.954376159648344047e-02 -1.160485590569183129e-01 -6.457046308910636793e-03 1.214345272810311675e-02 -2.303444171585234193e-02 -8.417569636587110549e-02 -1.901851084998371771e-02 -4.202836350427275464e-02 1.030015025141704961e-02 2.622748284734710469e-03 -2.072527075015149350e-02 1.568419177923542976e-02 1.926244132086407934e-01 1.176603673690034130e-01 5.811594615609359110e-02 2.591303964277012761e-02 1.855458770790115522e-02 4.410210544250724868e-02 -6.902382057937930804e-02 1.414881587405646471e-02 1.442932097916866663e-01 -6.169617803479085505e-02 -1.376847142044827776e-02 -4.077749468326481025e-02 -1.526968523642936379e-02 7.960070408914043938e-02 2.255212471913208960e-03 2.403422024570770876e-03 3.096488761802143608e-02 -3.380822453745702116e-02 1.003892774894813295e-01 -3.146660718108291316e-02 -1.364476345164473449e-02 -3.709971707204935687e-02 2.559436848959825705e-02 -5.716856888004587245e-02 6.572159313118202534e-03 6.957773313722573350e-02 6.265850696791296082e-02 1.738752115094113759e-02 1.784927225923346739e-02 -7.699497251795946184e-02 -7.298064925674656311e-02 2.546007679905588558e-02 6.352808035388692043e-02 -2.269243642362599091e-03 -3.570481046430026405e-03 1.009900635650264750e-02 -1.720701308133470997e-02 3.494064275062219727e-02 7.990655131459603600e-02 3.310442914802549496e-03 7.101401488848888000e-02 -4.732453653365571722e-02 -1.005906571425734530e-01 -8.451597532428152537e-02 1.040776907824663283e-01 1.840135474486391531e-02 1.052227481414078347e-01 4.983373591578676813e-04 3.894215628490210052e-02 1.029436394302467132e-02 -1.613970061341947482e-02 -3.664641358626159751e-02 -4.442298503808515125e-02 -1.160200034329025714e-01 -4.997607050818116819e-02 2.657693297713697479e-03 9.824048864341317078e-02 3.484493389447335804e-02 -4.822970183852779563e-03 2.958238033856384550e-02 -2.780614760729948134e-02 2.084245980793513267e-02 -2.890643967000575132e-02 3.769414882558812935e-02 3.770328336786071127e-02 -2.655893246343330599e-02 6.170426568253539051e-02 -3.655345942001957116e-02 -4.371610204499103147e-02 1.036281529209564095e-01 -9.803687185380539904e-02 2.831980169971914929e-02 -7.326007148592544871e-02 9.700223643739670776e-02 2.539150438671335108e-02 2.219630701117123947e-02 -2.315154268577649874e-02 -2.379659684355095450e-02 4.421688486134492391e-02 8.040450290969881897e-02 1.113278936308429931e-02 3.936483574949925512e-02 -4.064498901897291294e-02 4.893371168287275613e-02 5.353705718682282011e-02 5.123717748244594611e-02 -6.633885543721546908e-03 -1.027223357393415495e-03 -4.211448335278698135e-02 2.033532736647862896e-02 9.915966923554619949e-02 1.357845555030971763e-02 -2.596213642914112912e-02 3.984567402573275380e-02 1.100079645055632022e-01 -1.034549069777741630e-02 -2.016621357471862566e-02 -2.212861334561765439e-02 6.685697955680458548e-02 -4.809339063598168547e-03 -2.125014862634038229e-02 -5.697876896686406706e-03 5.788133836228137596e-02 -9.417196154622439752e-02 -1.030206778754999830e-01 3.402960621938122543e-02 -2.841901430295638159e-02 4.253561402191281468e-03 5.902299484402469265e-02 1.877721920935539537e-02 -8.282571666218692050e-03 -8.216684123345290025e-02 -2.625753066549534748e-02 -3.448159535269671588e-02 6.430936290464400740e-02 4.419008948698829875e-02 1.147327655601328676e-02 5.117034002418027706e-04 5.537720027164336201e-02 2.405956131571156467e-02 5.923351720687417693e-02 -1.951248907694042023e-01 3.794114427018559221e-02 -1.028302325414151563e-01 2.142587506984901941e-02 -5.637918003988447169e-02 -9.182506823441001498e-02 -6.598167978427856017e-02 -1.303037177485253696e-02 1.865072311375183881e-02 4.814672185252185516e-02 -6.660720288519897392e-02 -3.138490933284374812e-02 -5.175797008766022667e-02 7.877910694831496974e-02 -2.111070853832590702e-02 2.047257021692780107e-02 -4.655937105162412382e-02 -2.941099100226264931e-02 -2.042084112132348112e-03 -3.925927204806276688e-02 -2.495432918338051642e-02 -2.218512329634369368e-02 -7.075066949048048996e-03 -2.296898453690107006e-02 -1.309210991806454387e-02 3.819687966623603464e-02 -5.573448060843085722e-02 -5.250978352468568811e-02 -3.005512581073475215e-02
-1.585896851322230738e-01 -1.350770502150175079e-01 -2.233247285617956032e-02 -9.267241140567496205e-02 3.114463523913933718e-02 -6.338215830246148041e-02 -3.271591669045472578e-02 2.723358637444669994e-02 2.211646098020153550e-02 -9.238527882508180966e-03 3.444447432642973317e-02 -1.080366576696241030e-03 3.643129123725621227e-02 -6.597411160424375420e-02 2.008588586089769118e-02 2.307538451273418237e-02 3.337155887174818314e-02 8.402595889996682110e-02 7.982865851974055293e-02 3.440405713491626050e-02 -5.834949285637427985e-02 -8.986268701478725140e-02 1.050668651381282126e-01 -3.403723039374718321e-03 5.921996486977663954e-02 1.318538274006701705e-01 -9.170547575590401457e-02 -4.995931085917341974e-02 -2.123366994063825147e-02 6.256968023195030870e-02 8.511819204370295322e-02 -4.942272467245591161e-02 -4.594876933239804007e-02 8.323317115161186575e-04 -2.981476313251817112e-02 7.893624705592380830e-02 -1.713380512764358099e-01 8.029313046400357590e-02 2.295367650473349383e-02 -9.967895901351991883e-02 7.669468756318206792e-02 -5.228859197345922527e-02 2.673335012395840551e-02 -1.024731656946611599e-02 -1.453665574590656123e-02 -5.902221481549749932e-02 -8.684421192447200344e-02 5.560311705732570720e-02 8.971757806195983231e-02 -6.632268520693440639e-02 -6.518258882276793675e-02 1.184246932322554624e-01 4.378439533020309776e-02 -5.836118953906505036e-02 -3.133544542850494330e-02 2.139989391917273935e-03 1.629767557658668917e-02 1.945489102181141572e-02 -1.668540034314618245e-03 -2.429779585648317655e-02 -9.496624745252962851e-02 -3.884699455181744171e-02 -1.600461999161416696e-02 -5.290609089242612195e-02 -6.048631258040704922e-02 -1.589303416304261446e-02 7.521873573862114526e-02 1.723189015188711926e-01 -7.991643085940143554e-03 -1.597660634117325151e-03 4.333742738245370540e-02 6.194363710155179059e-02 -1.600170712015475949e-01 -5.421584638250905031e-02 4.000986525979601666e-02 -9.985751068719045387e-03 -2.849501237043441937e-02 4.175613039545650329e-02 -8.709322663195014080e-02 5.665401283277699679e-02 1.469916920331870713e-01 1.143976771575894169e-01 1.008397920524462116e-01 -1.246576861840751199e-01 -7.247094244803860275e-03 8.255009819170511243e-02 -3.352873249239789882e-02 7.788143872010261370e-02 9.190878557143608574e-02 5.140902730718298341e-02 6.656928982828623498e-02 -7.705101122456667340e-02 1.861027014928388207e-02 3.485090758614998313e-02 -8.948887785452616650e-02 -2.757594123070566255e-02 -1.799789299008487387e-01 9.404558449238796525e-02 3.523848158236244504e-02 -1.426089695134306612e-01 1.160673129295233391e-01 -1.641943284271339121e-01 1.743015804885020281e-02 -1.230080901706409741e-01 8.135815651773069257e-02 2.358135733656557265e-01 -1.136682011569872114e-01 -4.678177683944047954e-02 -1.449613405651195043e-02 1.024704689398337094e-02 -1.028092242620677471e-01 -3.087831703415777965e-03 1.399705320199672899e-02 2.974485757289575122e-02 8.094718340640037757e-02 -1.945191752984873623e-01 -1.927564766141299721e-02 1.846825087481696603e-01 -1.590450805614974927e-01 1.175420853552845979e-01 -1.483573287397755291e-01 -1.728101507157039085e-01 -1.022907018325167929e-02 1.856998778324440297e-02 -3.419547358512050467e-02 -1.253065439233700951e-01 -2.844692660989365379e-02 -6.269177882135273938e-02 1.492822335932556671e-02 3.992036373683050671e-03 -3.106171404785154286e-02 2.345628802689577255e-02 2.864335190027020861e-01 1.739627082460926399e-01 8.605841494248891999e-02 3.846533723997689475e-02 2.744853109347633602e-02 6.555815727142817739e-02 -1.026099468027886069e-01 2.024078442665636773e-02 2.150598316374364716e-01 -9.217917867773282870e-02 -2.067799567497980578e-02 -6.140173824220387933e-02 -2.287470306524475375e-02 1.190036500137928027e-01 3.002822184478985083e-03 3.751435738989357133e-03 4.605531644723812740e-02 -5.060033223053966162e-02 1.495300742018463303e-01 -4.694641738735685216e-02 -2.111715754268098794e-02 -5.539084913313693792e-02 3.832441078048106492e-02 -8.594485024502056258e-02 9.912295278640650270e-03 1.037512671351183691e-01 9.288826591215033901e-02 2.615548968400174812e-02 2.581014628825059956e-02 -1.159189503272402000e-01 -1.091673259521215161e-01 3.754511893333713213e-02 9.504662867637558854e-02 -3.305602277183886020e-03 -5.584896970079306598e-03 1.505601233456839612e-02 -2.492322176241658707e-02 5.202340727016744465e-02 1.193703387780385566e-01 4.789701403893717457e-03 1.059069366287215125e-01 -7.066880160566972602e-02 -1.511861877461356807e-01 -1.279179647918323726e-01 1.564065423961086831e-01 2.765294549540009417e-02 1.571077883401977016e-01 8.610123576814241678e-04 5.763607912127468452e-02 1.548546716380237026e-02 -2.369555889285928849e-02 -5.437294281538605084e-02 -6.578648374007728394e-02 -1.732990060926816456e-01 -7.424698874217004751e-02 3.050417072086677485e-03 1.472022474978096074e-01 5.244757635549132657e-02 -8.340361426688220475e-03 4.450858113563178897e-02 -4.138790908914642686e-02 3.071626208338476202e-02 -4.243865196790975319e-02 5.664062382755470637e-02 5.628225908054757670e-02 -3.919889553565970852e-02 9.165187706104262200e-02 -5.317218188522200573e-02 -6.500767522187204939e-02 1.547389239572440345e-01 -1.460651314477893481e-01 4.353968771930125103e-02 -1.098110051398135806e-01 1.444181161001164004e-01 3.864876605115794006e-02 3.300114004209385443e-02 -3.418277863375242948e-02 -3.478340250461401523e-02 6.693646917893340820e-02 1.199662742030312285e-01 1.571069516924145440e-02 5.964824425880561887e-02 -6.186649022681183635e-02 7.348508062088290882e-02 8.017125985483765371e-02 7.650481097896591476e-02 -1.079982682087064078e-02 -1.428445813800576815e-03 -6.313685497912108202e-02 3.004249187238751048e-02 1.478681348038787258e-01 2.017528904532689751e-02 -3.856271164686769087e-02 5.969980596090052744e-02 1.644732116014304968e-01 -1.599273240387339215e-02 -3.090792736590773637e-02 -3.225910434491974926e-02 1.002369553947412839e-01 -7.998274173253751285e-03 -3.119382888981307375e-02 -8.913828495238491217e-03 8.794263756038890600e-02 -1.418957243141526214e-01 -1.549350007141190866e-01 5.077497489047929496e-02 -4.234841387931759238e-02 6.576837216870965071e-03 8.812417936691584186e-02 2.750795913112943566e-02 -1.270235625180457691e-02 -1.230228573380248575e-01 -3.950853830658461463e-02 -5.140988981961661097e-02 9.637186328903901700e-02 6.664082839769118471e-02 1.703541108010752161e-02 8.220170939051128257e-04 8.292847635091751823e-02 3.555234360787828951e-02 8.760478590580857150e-02 -2.911849763305837113e-01 5.583219215430148402e-02 -1.533030948970772467e-01 3.191194763956387015e-02 -8.402175900222190463e-02 -1.368943775355023762e-01 -9.813471632290660107e-02 -2.004355610638991828e-02 2.785417516562102222e-02 7.219118143973533852e-02 -9.941030529164526786e-02 -4.682071080658677109e-02 -7.753010716270254676e-02 1.174611620830725012e-01 -3.087408228695772902e-02 3.116599387969761631e-02 -6.938855247394064285e-02 -4.403509654868597439e-02 -3.180854808237292084e-03 -5.870440633067349617e-02 -3.711108541293432761e-02 -3.339962170262215230e-02 -1.074509630462310884e-02 -3.470338481323941016e-02 -1.966599639336686495e-02 5.720681727172300529e-02 -8.326865259178109491e-02 -7.773256009928199151e-02 -4.478119371969422474e-02