3.970380904302896197e-02 1.535273674081137282e-02 -4.481621610201825894e-04 1.535273674081137456e-02 3.978084147218794581e-02 -1.953997316017254317e-03 -4.481621610201824810e-04 -1.953997316017254317e-03 2.304235307612683206e-02
4.881801657303006664e-02 -1.573416753921777142e-02 -4.743387414820089687e-02 -1.573416753921777489e-02 5.341867459990816414e-02 -2.318328768572967546e-01 -4.743387414820089687e-02 -2.318328768572967546e-01 4.554582407993389148e-02
-1.319694429872758090e-01 -5.591776259941957927e-02 -9.431101700602791127e-02 -5.591776259941958621e-02 -1.240694699931619849e-01 -4.641521992363152882e-01 -9.431101700602791127e-02 -4.641521992363152327e-01 -1.304383421928803355e-01
1.210955761981839934e-01 -8.000600084969990144e-02 -1.420896589652883013e-01 -8.000600084969988757e-02 1.302220358825686708e-01 -6.908174309179928585e-01 -1.420896589652883013e-01 -6.908174309179927475e-01 1.202282663874541663e-01
2.392296899525977738e-01 -1.080840810289299958e-01 -1.903747507606126654e-01 -1.080840810289299958e-01 2.489210693542598662e-01 -9.179725775922571440e-01 -1.903747507606126932e-01 -9.179725775922570330e-01 2.276726795805441850e-01
3.557923748744497572e-01 -1.391703171660574889e-01 -2.388173551446555465e-01 -1.391703171660575167e-01 3.657679682561712498e-01 -1.143984891634070689e+00 -2.388173551446555187e-01 -1.143984891634070467e+00 3.277483400084658105e-01
4.901180661743239630e-01 -1.677117973832828457e-01 -2.874806396789009177e-01 -1.677117973832828179e-01 4.992348851495479467e-01 -1.365952495501783437e+00 -2.874806396789009177e-01 -1.365952495501783659e+00 4.381615526024056351e-01
6.390115197357528753e-01 -1.958721308294619767e-01 -3.361741966910655743e-01 -1.958721308294619490e-01 6.472613074904611796e-01 -1.584830976884365583e+00 -3.361741966910655188e-01 -1.584830976884365583e+00 5.571604238718609325e-01
7.939675917213830925e-01 -2.226942379445385756e-01 -3.847670640298148093e-01 -2.226942379445386033e-01 8.010806719603391635e-01 -1.799790728984688615e+00 -3.847670640298147537e-01 -1.799790728984688615e+00 6.769816970748906426e-01
1.009428672252694614e+00 -2.480838158075850675e-01 -4.328649930790172684e-01 -2.480838158075851230e-01 1.014929339553095167e+00 -2.010750201045406804e+00 -4.328649930790172129e-01 -2.010750201045407248e+00 8.517006331885361714e-01
1.195192760053852332e+00 -2.722572695453704394e-01 -4.806658612847504730e-01 -2.722572695453703284e-01 1.199331312346076706e+00 -2.216519813168270847e+00 -4.806658612847504175e-01 -2.216519813168270847e+00 9.921502104503798769e-01
1.406484949550143249e+00 -2.951739543410357158e-01 -5.280589547503576897e-01 -2.951739543410356603e-01 1.409351757607702149e+00 -2.416209858747749628e+00 -5.280589547503578007e-01 -2.416209858747749628e+00 1.153849996166555814e+00
1.638920040877242412e+00 -3.150152538951715986e-01 -5.742738883555364993e-01 -3.150152538951716541e-01 1.640669783993369490e+00 -2.610252388801752144e+00 -5.742738883555363882e-01 -2.610252388801752144e+00 1.333429921076027647e+00
1.873681352384693799e+00 -3.337416272136013995e-01 -6.196419090558283882e-01 -3.337416272136014550e-01 1.874830492192726128e+00 -2.797558595125069214e+00 -6.196419090558283882e-01 -2.797558595125069658e+00 1.511458442781186573e+00
2.101009818771358173e+00 -3.498690005823047455e-01 -6.638713425635321963e-01 -3.498690005823047455e-01 2.102194868902952152e+00 -2.977371882223437183e+00 -6.638713425635323073e-01 -2.977371882223437627e+00 1.679710927315989588e+00
2.369629464857777812e+00 -3.631161783940456966e-01 -7.064335919265255503e-01 -3.631161783940456966e-01 2.371383696808265551e+00 -3.149797475572154948e+00 -7.064335919265255503e-01 -3.149797475572154504e+00 1.887107204008461103e+00
2.596876275625257247e+00 -3.740129877451178753e-01 -7.475929053599869034e-01 -3.740129877451179863e-01 2.600200693660499773e+00 -3.313793128377159558e+00 -7.475929053599869034e-01 -3.313793128377159114e+00 2.051581515953339263e+00
2.841124033564277340e+00 -3.814023214782748528e-01 -7.869017763937945498e-01 -3.814023214782747973e-01 2.846934734870303352e+00 -3.469210232351749745e+00 -7.869017763937945498e-01 -3.469210232351749745e+00 2.231608965509358278e+00
3.083345794433744125e+00 -3.857930229618410367e-01 -8.239732542765979550e-01 -3.857930229618410922e-01 3.092752727745096575e+00 -3.615786715434176291e+00 -8.239732542765978440e-01 -3.615786715434176735e+00 2.409423023192895030e+00
3.324288781663725878e+00 -3.869314998495836377e-01 -8.588964896141869643e-01 -3.869314998495836377e-01 3.338552386826352691e+00 -3.752854200421148700e+00 -8.588964896141869643e-01 -3.752854200421148700e+00 2.585725778897833838e+00
3.545457478349301805e+00 -3.847985165761477755e-01 -8.914520106912726671e-01 -3.847985165761477755e-01 3.566085873936756023e+00 -3.880057555177048645e+00 -8.914520106912726671e-01 -3.880057555177048201e+00 2.743011479238627537e+00
3.764159140389157443e+00 -3.787055389764254487e-01 -9.214203656213807436e-01 -3.787055389764255042e-01 3.792723104216077168e+00 -3.997034959208423999e+00 -9.214203656213807436e-01 -3.997034959208424887e+00 2.898785874720340328e+00
3.973181183464460364e+00 -3.690076420113573841e-01 -9.485479093609126000e-01 -3.690076420113573286e-01 4.011454071502028818e+00 -4.103651835049109131e+00 -9.485479093609127110e-01 -4.103651835049110019e+00 3.046455892732729875e+00
4.171866667636406234e+00 -3.554578928731785825e-01 -9.727688034228059166e-01 -3.554578928731786380e-01 4.221765548786545530e+00 -4.199600370163438789e+00 -9.727688034228058056e-01 -4.199600370163438789e+00 3.185740688693328604e+00
4.349076858306495375e+00 -3.382508913499243097e-01 -9.939833971529165035e-01 -3.382508913499243652e-01 4.412723511188969105e+00 -4.284686316781223248e+00 -9.939833971529165035e-01 -4.284686316781223248e+00 3.306128786217434001e+00
4.512044528553367684e+00 -3.170522665583725419e-01 -1.012098549019146088e+00 -3.170522665583725974e-01 4.591551807839892696e+00 -4.358768938915919655e+00 -1.012098549019146088e+00 -4.358768938915918767e+00 3.415075843195519933e+00
4.664694625812454198e+00 -2.918419781603285301e-01 -1.026819848690242898e+00 -2.918419781603284746e-01 4.762182344244605403e+00 -4.421907436556306692e+00 -1.026819848690242898e+00 -4.421907436556306692e+00 3.516734300266076474e+00
4.797833354982463661e+00 -2.626802729517679902e-01 -1.038254417367612925e+00 -2.626802729517679347e-01 4.915440583352682857e+00 -4.474062044590330522e+00 -1.038254417367612925e+00 -4.474062044590329634e+00 3.602103871195681872e+00
4.911842571290778281e+00 -2.296742494559211312e-01 -1.046523216764001729e+00 -2.296742494559211312e-01 5.051740391195710167e+00 -4.515052622529402093e+00 -1.046523216764001951e+00 -4.515052622529402093e+00 3.671846532943777497e+00
5.011869418028902068e+00 -1.925828769331326407e-01 -1.051318108963778197e+00 -1.925828769331326684e-01 5.176138503305390159e+00 -4.545045309761838404e+00 -1.051318108963777975e+00 -4.545045309761838404e+00 3.731291585409045819e+00
5.091811885902198576e+00 -1.518475991294920557e-01 -1.052825359723577492e+00 -1.518475991294920280e-01 5.282567153894901502e+00 -4.564328260285122951e+00 -1.052825359723577492e+00 -4.564328260285123839e+00 3.774207035337757699e+00
5.157023965870182636e+00 -1.071603901212614535e-01 -1.051004785926063390e+00 -1.071603901212614673e-01 5.376250693014437587e+00 -4.572921395824044666e+00 -1.051004785926063612e+00 -4.572921395824043778e+00 3.806049222122739106e+00
5.206077952646580798e+00 -5.900881110198409607e-02 -1.046016197112763502e+00 -5.900881110198408913e-02 5.455587755710282316e+00 -4.571025852285497848e+00 -1.046016197112763280e+00 -4.571025852285497848e+00 3.825447374592445549e+00
5.238965697868998461e+00 -7.172670027249175920e-03 -1.038045330450924952e+00 -7.172670027249179389e-03 5.520713533890790892e+00 -4.559090258097726611e+00 -1.038045330450924508e+00 -4.559090258097727499e+00 3.832214268999232232e+00
5.257957227261313982e+00 4.786080660411366067e-02 -1.026898115088905161e+00 4.786080660411363985e-02 5.573624104916243382e+00 -4.537160776612421564e+00 -1.026898115088905383e+00 -4.537160776612421564e+00 3.828777178023305527e+00
5.264065994420127126e+00 1.065332437623885964e-01 -1.013167351587718645e+00 1.065332437623885686e-01 5.615245155472480043e+00 -4.505934795600833098e+00 -1.013167351587718423e+00 -4.505934795600833098e+00 3.815784710054362261e+00
5.257859497886914646e+00 1.679699071704493230e-01 -9.967321601232727035e-01 1.679699071704493230e-01 5.645771464743824630e+00 -4.465565715143299919e+00 -9.967321601232727035e-01 -4.465565715143299919e+00 3.793611324509396976e+00
5.240711510321834687e+00 2.327252497968813616e-01 -9.777114172544074666e-01 2.327252497968813894e-01 5.666744651652749987e+00 -4.416501935689702840e+00 -9.777114172544075776e-01 -4.416501935689702840e+00 3.763781591351767819e+00
5.215958100470660774e+00 2.998848615444897336e-01 -9.567848367714311131e-01 2.998848615444897336e-01 5.680993776931463124e+00 -4.359441145827047670e+00 -9.567848367714312241e-01 -4.359441145827048558e+00 3.729023677573625406e+00
5.180480686635180909e+00 3.698366531534481028e-01 -9.336381708580853145e-01 3.698366531534481028e-01 5.685378675264518122e+00 -4.294375610741117733e+00 -9.336381708580852035e-01 -4.294375610741117733e+00 3.686168098592474518e+00
5.143638939458378800e+00 4.418329355251053858e-01 -9.091972111259893907e-01 4.418329355251053858e-01 5.688887951365869888e+00 -4.222405036771020193e+00 -9.091972111259893907e-01 -4.222405036771020193e+00 3.644362244528946526e+00
5.100739235760911150e+00 5.158081140890671268e-01 -8.830671497378065338e-01 5.158081140890672378e-01 5.686445966560911280e+00 -4.143615041504486562e+00 -8.830671497378066448e-01 -4.143615041504486562e+00 3.598310266750381903e+00
5.054657261844337945e+00 5.917025206134290949e-01 -8.558416750402537687e-01 5.917025206134292059e-01 5.680773798058187829e+00 -4.058435548730293441e+00 -8.558416750402537687e-01 -4.058435548730293441e+00 3.550807196536148513e+00
5.008581103873921414e+00 6.697377514525160169e-01 -8.277984909584337192e-01 6.697377514525162390e-01 5.674781610452090952e+00 -3.967810308294245747e+00 -8.277984909584337192e-01 -3.967810308294245747e+00 3.504688199731178067e+00
4.961743950282128779e+00 7.485845177747063595e-01 -7.990978412672105069e-01 7.485845177747064705e-01 5.667283704162867863e+00 -3.871806732234057691e+00 -7.990978412672103959e-01 -3.871806732234057691e+00 3.458883404020726360e+00
4.921595558410513327e+00 8.291322926213597899e-01 -7.703240454005759741e-01 8.291322926213599009e-01 5.665694823268610847e+00 -3.771663799158007979e+00 -7.703240454005758631e-01 -3.771663799158007091e+00 3.420701368958792621e+00
4.880221797080464441e+00 9.099383361297774808e-01 -7.414379892417708451e-01 9.099383361297774808e-01 5.661613581768308201e+00 -3.667073804054064023e+00 -7.414379892417708451e-01 -3.667073804054064023e+00 3.381716862146444846e+00
4.848527621957136269e+00 9.921663334473262985e-01 -7.131649715396818356e-01 9.921663334473262985e-01 5.665893507289305298e+00 -3.559109021678527274e+00 -7.131649715396819467e-01 -3.559109021678527274e+00 3.352875996558402960e+00
4.823118659193625035e+00 1.074440907065448148e+00 -6.855498721042415644e-01 1.074440907065447925e+00 5.674506740467605503e+00 -3.448344671660170668e+00 -6.855498721042416754e-01 -3.448344671660170668e+00 3.330340621002788826e+00
4.801328405426346535e+00 1.157543914022490572e+00 -6.584931937797262602e-01 1.157543914022490572e+00 5.684937602544911428e+00 -3.334539697748466036e+00 -6.584931937797263712e-01 -3.334539697748466036e+00 3.311061603349806592e+00
4.793258738839264232e+00 1.239724332383167926e+00 -6.330727648731104829e-01 1.239724332383167926e+00 5.707010543824496018e+00 -3.219322567413001046e+00 -6.330727648731105939e-01 -3.219322567413001046e+00 3.305697530942573792e+00
4.791431236477809996e+00 1.322393779016591164e+00 -6.087947734584858717e-01 1.322393779016591386e+00 5.733038571601701605e+00 -3.102390730201679769e+00 -6.087947734584858717e-01 -3.102390730201679769e+00 3.305635953088599699e+00
4.800937259259513645e+00 1.404129287749739996e+00 -5.863459827546669834e-01 1.404129287749739996e+00 5.767712955079002946e+00 -2.984334907148214366e+00 -5.863459827546669834e-01 -2.984334907148214810e+00 3.316507057986416651e+00
4.820641244649214840e+00 1.485760441240038698e+00 -5.657907054747667308e-01 1.485760441240038698e+00 5.809775411037875870e+00 -2.865924280090367038e+00 -5.657907054747668418e-01 -2.865924280090367038e+00 3.336712738011761381e+00
4.851154064608421024e+00 1.565923559316624081e+00 -5.472968530290726052e-01 1.565923559316624081e+00 5.859705004763469560e+00 -2.746932070503993906e+00 -5.472968530290727163e-01 -2.746932070503993906e+00 3.366901595077548937e+00
4.893342434310900657e+00 1.646009853522825805e+00 -5.311675143754597261e-01 1.646009853522825805e+00 5.918266557392344751e+00 -2.628716673768690004e+00 -5.311675143754598372e-01 -2.628716673768690448e+00 3.408303995797678621e+00
4.946164302039814942e+00 1.723847015598459542e+00 -5.174775963605817708e-01 1.723847015598459764e+00 5.984141727506401054e+00 -2.510863786653318552e+00 -5.174775963605817708e-01 -2.510863786653318996e+00 3.459174706214857231e+00
5.010015207710946328e+00 1.801292645093042655e+00 -5.064778587369614948e-01 1.801292645093042877e+00 6.058131881258716156e+00 -2.394383916596109607e+00 -5.064778587369613838e-01 -2.394383916596110051e+00 3.520737401705482217e+00
5.084168972205413972e+00 1.875934789756457555e+00 -4.983216494601095392e-01 1.875934789756457333e+00 6.138910385185508467e+00 -2.279404642819698346e+00 -4.983216494601095392e-01 -2.279404642819698346e+00 3.591915524364979184e+00
5.169250454427805508e+00 1.950340924865298975e+00 -4.932760731953317324e-01 1.950340924865298975e+00 6.227183034910859227e+00 -2.166040506296815327e+00 -4.932760731953316768e-01 -2.166040506296814883e+00 3.672909671462926351e+00
5.263469208453992465e+00 2.021255508519300470e+00 -4.914465855729736044e-01 2.021255508519300470e+00 6.320875364849540823e+00 -2.054746579229045800e+00 -4.914465855729735488e-01 -2.054746579229045356e+00 3.762603171147587133e+00
5.366718619871849505e+00 2.091639309465079588e+00 -4.928101964777718558e-01 2.091639309465079144e+00 6.420334695519293255e+00 -1.946412092566772056e+00 -4.928101964777718558e-01 -1.946412092566772056e+00 3.861103025145262269e+00
5.478301413328414249e+00 2.157748573653791357e+00 -4.972208769195377576e-01 2.157748573653791357e+00 6.524600005883936404e+00 -1.840702262542604828e+00 -4.972208769195377021e-01 -1.840702262542605050e+00 3.967312613946077260e+00
5.596268051017805334e+00 2.223159139218095159e+00 -5.049235821104666178e-01 2.223159139218095603e+00 6.632210615110776253e+00 -1.738366777481832548e+00 -5.049235821104667288e-01 -1.738366777481832770e+00 4.080269061533372543e+00
5.721079990669373672e+00 2.284843177380260659e+00 -5.161261917268289423e-01 2.284843177380260659e+00 6.743233320973644140e+00 -1.639219130391494916e+00 -5.161261917268288313e-01 -1.639219130391494916e+00 4.199965674151836303e+00
5.851650920809526646e+00 2.345273803348626007e+00 -5.309533529786806261e-01 2.345273803348626007e+00 6.856888839452342843e+00 -1.543988563927787272e+00 -5.309533529786806261e-01 -1.543988563927787272e+00 4.325680298623121089e+00
5.985613024246299041e+00 2.401542507904123713e+00 -5.491639910882428754e-01 2.401542507904123713e+00 6.970730565282172719e+00 -1.452774604517771628e+00 -5.491639910882428754e-01 -1.452774604517771850e+00 4.455186273807622221e+00
6.123230169769681375e+00 2.456202020048163792e+00 -5.709035692659227834e-01 2.456202020048163792e+00 7.085517687910216189e+00 -1.366079216259111773e+00 -5.709035692659226724e-01 -1.366079216259111773e+00 4.589085406913558707e+00
6.262073429952938142e+00 2.506484045400976246e+00 -5.960719001633901781e-01 2.506484045400976246e+00 7.198804537110684798e+00 -1.283861971838935911e+00 -5.960719001633900671e-01 -1.283861971838935911e+00 4.725077478215669480e+00
6.401799115508694626e+00 2.554801629387084994e+00 -6.247943179187469553e-01 2.554801629387084994e+00 7.310520221541702668e+00 -1.206644829300960176e+00 -6.247943179187470664e-01 -1.206644829300960398e+00 4.863022073149963376e+00
6.541670449333524928e+00 2.599328726798879607e+00 -6.568164258740316619e-01 2.599328726798879607e+00 7.420090920879210294e+00 -1.134513890028294281e+00 -6.568164258740316619e-01 -1.134513890028294059e+00 5.002150228841506951e+00
6.680628071970383886e+00 2.641502035126456871e+00 -6.923708478048459236e-01 2.641502035126456427e+00 7.526750526154726728e+00 -1.067897864384515616e+00 -6.923708478048458126e-01 -1.067897864384515616e+00 5.141592678018487739e+00
6.816891241925869593e+00 2.679622239911626735e+00 -7.313373669387847054e-01 2.679622239911626735e+00 7.628976552857209548e+00 -1.006749563660263247e+00 -7.313373669387848164e-01 -1.006749563660263247e+00 5.279671063324265390e+00
6.949988843952578321e+00 2.715153320453357111e+00 -7.737011117166121554e-01 2.715153320453357111e+00 7.726431019278638068e+00 -9.515236213650677399e-01 -7.737011117166121554e-01 -9.515236213650677399e-01 5.416051057882389053e+00
7.078772566569784708e+00 2.746817240030716700e+00 -8.190873085332333048e-01 2.746817240030716700e+00 7.818222787901441428e+00 -9.023124203469050642e-01 -8.190873085332333048e-01 -9.023124203469050642e-01 5.549615993447619466e+00
7.203021597186777036e+00 2.775642728112630575e+00 -8.676752608811548750e-01 2.775642728112630131e+00 7.904445621730273430e+00 -8.594910054281431622e-01 -8.676752608811548750e-01 -8.594910054281430511e-01 5.680171958530401355e+00
7.322178611797606429e+00 2.800973748310149336e+00 -9.194248433516769570e-01 2.800973748310148892e+00 7.984760827650173809e+00 -8.230592516370219824e-01 -9.194248433516768459e-01 -8.230592516370218714e-01 5.807137211966007406e+00
7.434629405213343922e+00 2.823217449705657245e+00 -9.741281514933877173e-01 2.823217449705657689e+00 8.057780280388564975e+00 -7.932036934007027362e-01 -9.741281514933876062e-01 -7.932036934007027362e-01 5.928980509022895085e+00
7.540857330206664599e+00 2.842085624827896506e+00 -1.031657536436694667e+00 2.842085624827896062e+00 8.124190792371127401e+00 -7.701044525698741428e-01 -1.031657536436694667e+00 -7.701044525698741428e-01 6.046176610015240982e+00
7.640089462688580468e+00 2.858172643822086023e+00 -1.091952512679333687e+00 2.858172643822085579e+00 8.183448007255814005e+00 -7.538549376279032321e-01 -1.091952512679333687e+00 -7.538549376279032321e-01 6.158030101962407521e+00
7.731841408125913695e+00 2.870915794990459347e+00 -1.154832223535900315e+00 2.870915794990459347e+00 8.235374332319825186e+00 -7.445481707505481328e-01 -1.154832223535900759e+00 -7.445481707505482438e-01 6.263912441128844044e+00
7.816187317945911595e+00 2.881230315471416947e+00 -1.220202198512040592e+00 2.881230315471416947e+00 8.280303498142769669e+00 -7.424446116111137473e-01 -1.220202198512040592e+00 -7.424446116111137473e-01 6.364111161171535080e+00
7.892926388574729835e+00 2.888139527518032601e+00 -1.287681707845721668e+00 2.888139527518033045e+00 8.318155461946574292e+00 -7.474159616406819140e-01 -1.287681707845721668e+00 -7.474159616406819140e-01 6.457910791770165027e+00
7.962202058707591235e+00 2.893201198697034737e+00 -1.357329613613420305e+00 2.893201198697034293e+00 8.349154547657226644e+00 -7.598636027138939708e-01 -1.357329613613420305e+00 -7.598636027138939708e-01 6.545786093127016869e+00
8.024017728855810105e+00 2.894896126812609882e+00 -1.428759649033936041e+00 2.894896126812609882e+00 8.373691869471779015e+00 -7.793115170060608277e-01 -1.428759649033936263e+00 -7.793115170060608277e-01 6.627048336214413915e+00
8.078735717148084916e+00 2.895049898265759314e+00 -1.501923449859722703e+00 2.895049898265759314e+00 8.392107203060575671e+00 -8.062342785076135332e-01 -1.501923449859722481e+00 -8.062342785076136442e-01 6.702640352745828700e+00
8.126171398668978085e+00 2.892264490662117993e+00 -1.576674913409427115e+00 2.892264490662117993e+00 8.404357827981955964e+00 -8.403238332363610619e-01 -1.576674913409427115e+00 -8.403238332363610619e-01 6.771612630801110200e+00
8.167610649699520664e+00 2.888244331423853506e+00 -1.652572602893306764e+00 2.888244331423853950e+00 8.411946208022317961e+00 -8.816188176602491877e-01 -1.652572602893306541e+00 -8.816188176602491877e-01 6.835449624631942278e+00
8.201885412581061630e+00 2.881665331302377009e+00 -1.729509297026331049e+00 2.881665331302377009e+00 8.413733489940671717e+00 -9.301857575368479569e-01 -1.729509297026330827e+00 -9.301857575368479569e-01 6.892780566146552879e+00
8.231758701597140515e+00 2.874325436087647567e+00 -1.807131702877975199e+00 2.874325436087647567e+00 8.412727270465936158e+00 -9.856958164134962397e-01 -1.807131702877975421e+00 -9.856958164134962397e-01 6.945979231626181694e+00
8.255332185283080548e+00 2.865114816564756861e+00 -1.885265316155558146e+00 2.865114816564756861e+00 8.406974341634855463e+00 -1.048342338076645452e+00 -1.885265316155557924e+00 -1.048342338076645675e+00 6.993360581944426002e+00
8.274435458962004830e+00 2.855423736085531683e+00 -1.963898102668886203e+00 2.855423736085531683e+00 8.398483273847354269e+00 -1.117724071281662512e+00 -1.963898102668885981e+00 -1.117724071281662512e+00 7.036188395142681351e+00
8.289471028043520207e+00 2.844047710365676274e+00 -2.042348371612781488e+00 2.844047710365675830e+00 8.387914733638087483e+00 -1.193731775048593846e+00 -2.042348371612781488e+00 -1.193731775048593846e+00 7.075044424789198594e+00
8.300221779401399047e+00 2.832465045369214618e+00 -2.120601958362835493e+00 2.832465045369214618e+00 8.374897401360122728e+00 -1.276606111164636514e+00 -2.120601958362835049e+00 -1.276606111164636514e+00 7.109400426581582444e+00
8.308186660589322869e+00 2.819498306810073185e+00 -2.198179699603708848e+00 2.819498306810072297e+00 8.361095135057256655e+00 -1.365656770483400839e+00 -2.198179699603708848e+00 -1.365656770483400839e+00 7.140332955796066194e+00
8.313683804005790989e+00 2.806578593623757278e+00 -2.274961136619948032e+00 2.806578593623757278e+00 8.346791601455963772e+00 -1.460916771340561082e+00 -2.274961136619947588e+00 -1.460916771340561082e+00 7.168229843290828462e+00
8.316580033101237390e+00 2.792616220502869506e+00 -2.350906695151072867e+00 2.792616220502869062e+00 8.331772271178714107e+00 -1.562218825136468592e+00 -2.350906695151072423e+00 -1.562218825136468370e+00 7.192830306287116393e+00
8.318326923534247186e+00 2.779535822376627774e+00 -2.425449534474239943e+00 2.779535822376628218e+00 8.317841982346198648e+00 -1.669106335990574008e+00 -2.425449534474239499e+00 -1.669106335990573786e+00 7.215378072753311223e+00
8.318440674980140059e+00 2.765679738052411185e+00 -2.498229205143316367e+00 2.765679738052411185e+00 8.304314360752391266e+00 -1.781384206665431957e+00 -2.498229205143315923e+00 -1.781384206665431735e+00 7.235237911169799752e+00
8.317764828529790933e+00 2.752906892260774452e+00 -2.569365903715887356e+00 2.752906892260774452e+00 8.292037599136152792e+00 -1.899106312466051660e+00 -2.569365903715886912e+00 -1.899106312466051660e+00 7.253225596110077333e+00
