1.036617999999999995e+01 2.715939999999999799e+00 2.538289999999999935e+00 1.041838000000000086e+01 2.576540000000000052e+00 7.726650000000000240e+00 1.035748000000000069e+01 7.869519999999999627e+00 3.035569999999999879e+00 7.874000000000000443e-02 8.098129999999999384e+00 7.571089999999999876e+00 5.277269999999999683e+00 2.331139999999999990e+00 2.340409999999999879e+00 4.924830000000000041e+00 2.495509999999999895e+00 7.984869999999999912e+00 5.403400000000000425e+00 7.900909999999999656e+00 2.615270000000000206e+00 5.473819999999999908e+00 7.814619999999999678e+00 8.036459999999999937e+00 2.886210000000000164e+00 5.055939999999999657e+00 2.183110000000000106e+00 2.573850000000000193e+00 5.258130000000000415e+00 7.593060000000000365e+00 2.954410000000000203e+00 1.039968000000000004e+01 2.525479999999999947e+00 2.378649999999999931e+00 1.063147999999999982e+01 7.707679999999999865e+00 7.795350000000000001e+00 4.860999999999999766e+00 2.456529999999999880e+00 7.837950000000000195e+00 5.357990000000000030e+00 7.528760000000000119e+00 7.925379999999999647e+00 1.035058000000000078e+01 2.029949999999999921e+00 8.037440000000000140e+00 1.074178000000000033e+01 7.503619999999999735e+00 2.846530000000000005e+00 2.557889999999999997e+00 4.867329999999999934e+00 2.503200000000000092e+00 2.069580000000000197e+00 1.028786999999999985e+01 2.553869999999999862e+00 7.948159999999999670e+00 5.020940000000000403e+00 2.537310000000000176e+00 7.482149999999999856e+00 1.015187000000000062e+01 7.747329999999999828e+00 2.078870000000000218e+00 4.951270000000000060e+00 7.878960000000000186e+00 2.545150000000000023e+00 1.008855999999999931e+01 7.905339999999999812e+00 8.359249999999999403e+00 5.040650000000000297e+00 7.927819999999999645e+00 7.942510000000000403e+00 8.673000000000000154e-02 9.985179999999999723e+00 5.215139999999999887e+00 5.055850000000000399e+00 1.013090000000000046e+01 5.473049999999999748e+00 1.034797000000000011e+01 2.534100000000000241e-01 9.513000000000000622e-02 5.111740000000000173e+00 1.525900000000000034e-01 1.053937999999999953e+01 2.664000000000000049e-02 5.219999999999999751e+00 5.243089999999999584e+00 4.894110000000000404e+00 5.360179999999999723e+00 5.207589999999999719e+00 1.024807000000000023e+01 5.362250000000000405e+00 1.079767999999999972e+01 5.245549999999999713e+00 5.187680000000000291e+00 1.065938000000000052e+01 1.018956999999999979e+01 3.586329999999999796e+00 4.087519999999999598e+00 3.750090000000000146e+00 4.768729999999999691e+00 4.088709999999999845e+00 1.431610000000000049e+00 4.064379999999999882e+00 9.202009999999999579e+00 4.037709999999999688e+00 3.826700000000000212e+00 1.088060000000000027e+00 8.940340000000000842e+00 8.859590000000000742e+00 6.345060000000000144e+00 3.654450000000000198e+00 9.345909999999999940e+00 4.412580000000000169e+00 8.962149999999999395e+00 9.588789999999999480e+00 9.416529999999999845e+00 1.893559999999999910e+00 8.899039999999999395e+00 9.740930000000000533e+00 9.762610000000000454e+00 6.856720000000000148e+00 1.221929999999999961e+00 1.263900000000000023e+00 3.742960000000000065e+00 8.848000000000000309e-02 6.440900000000000070e+00 3.350639999999999841e+00 5.659049999999999692e+00 4.365600000000000036e-01 3.888910000000000089e+00 6.631800000000000139e+00 8.687720000000000553e+00 9.245189999999999131e+00 1.073639999999999928e+00 9.710800000000000542e-01 9.265520000000000422e+00 1.320500000000000007e+00 6.107940000000000147e+00 4.046450000000000102e+00 1.403610000000000024e+00 3.663689999999999891e+00 4.279390000000000249e+00 1.377879999999999994e+00 8.415799999999999947e-01 3.948739999999999917e+00 6.639039999999999608e+00 3.243209999999999926e+00 3.960319999999999840e+00 9.488469999999999516e+00 9.167329999999999757e+00 9.228659999999999641e+00 3.712320000000000064e+00 3.713010000000000144e+00 8.936469999999999914e+00 1.757279999999999953e+00 8.638120000000000687e+00 9.724119999999999209e+00 9.044489999999999696e+00 4.338079999999999714e+00 9.330249999999999488e+00 6.877390000000000114e+00 6.410269999999999690e+00 6.836839999999999584e+00 3.932970000000000077e+00 7.618599999999999817e-01 3.968309999999999782e+00 3.131470000000000198e+00 6.258750000000000036e+00 4.102089999999999570e+00 9.130829999999999558e+00 1.447389999999999954e+00 3.653119999999999923e+00 6.269730000000000025e+00 6.004640000000000200e+00 8.522959999999999425e+00 6.185310000000000308e+00 1.214749999999999996e+00 8.995649999999999480e+00 4.275030000000000108e+00 6.376179999999999737e+00 9.602990000000000137e+00 7.218410000000000437e+00 9.214410000000000878e+00 9.749610000000000554e+00 9.706120000000000303e+00 6.688609999999999722e+00 1.473400000000000043e+00 1.054070000000000062e+00 3.618660000000000210e+00 1.036280000000000090e+00 9.513899999999999579e-01 8.917740000000000222e+00 1.001460000000000017e+00 6.689490000000000158e+00 4.360050000000000203e+00 1.333749999999999991e+00 5.891160000000000174e+00 9.150380000000000180e+00 6.397770000000000401e+00 8.955800000000000427e-01 3.979579999999999895e+00 6.548479999999999634e+00 1.043460000000000054e+00 9.113770000000000593e+00 6.436040000000000205e+00 6.368590000000000195e+00 3.586720000000000130e+00 7.178379999999999761e+00 6.658619999999999983e+00 8.731730000000000658e+00 7.587500000000000355e-01 5.197239999999999860e+00 1.802340000000000053e+00 9.673100000000000032e-01 4.811560000000000059e+00 6.690419999999999590e+00 1.471289999999999987e+00 9.279609999999999914e+00 3.315049999999999830e+00 1.389210000000000056e+00 9.109220000000000539e+00 9.112579999999999458e+00 9.070959999999999468e+00 3.623629999999999907e+00 1.116379999999999928e+00 6.367619999999999614e+00 4.705059999999999576e+00 6.212069999999999759e+00 6.602310000000000123e+00 9.318939999999999557e+00 8.143000000000000238e-01 7.468849999999999767e+00 1.001666999999999952e+01 5.858859999999999957e+00 1.194430000000000103e+00 3.837600000000000122e+00 3.869260000000000144e+00 1.693170000000000064e+00 3.362569999999999837e+00 8.929600000000000648e+00 1.412300000000000111e+00 9.703879999999999839e+00 5.881709999999999994e+00 2.270360000000000156e+00 1.076427999999999940e+01 6.954799999999999871e-01 6.562039999999999651e+00 3.562469999999999803e+00 3.559719999999999995e+00 6.289069999999999716e+00 3.887579999999999814e+00 8.645619999999999195e+00 7.149009999999999643e+00 9.125489999999999213e+00 3.334509999999999863e+00 6.619979999999999976e+00 9.361610000000000653e+00 8.370380000000000820e+00 2.615800000000000125e+00 3.022009999999999863e+00 1.683429999999999982e+00 1.335110000000000019e+00 1.517539999999999889e+00 6.502979999999999983e+00 9.699799999999999534e-01 7.460289999999999644e+00 8.009600000000000053e-01 1.529590000000000005e+00 7.575099999999999945e+00 6.600410000000000110e+00 9.190789999999999793e+00 1.050680000000000058e+00 3.338499999999999801e+00 6.741570000000000285e+00 1.378139999999999921e+00 6.412869999999999848e+00 6.208149999999999835e+00 6.743890000000000384e+00 1.007660000000000000e+00 6.733319999999999972e+00 7.257310000000000372e+00 6.308550000000000324e+00
2.969999999999999984e-03 2.734469999999999956e+00 2.333019999999999872e+00 1.349299999999999944e-01 2.856790000000000163e+00 7.589229999999999698e+00 9.967819999999999681e+00 8.160970000000000724e+00 2.602360000000000007e+00 3.042999999999999872e-02 8.054479999999999862e+00 7.751140000000000363e+00 5.397219999999999906e+00 2.947400000000000020e+00 2.704400000000000137e+00 5.268220000000000347e+00 2.541770000000000085e+00 7.330210000000000115e+00 5.292749999999999844e+00 7.608629999999999782e+00 2.405590000000000117e+00 5.001979999999999649e+00 7.522090000000000387e+00 7.380740000000000300e+00 2.539369999999999905e+00 5.380460000000000242e+00 2.713249999999999940e+00 2.641080000000000094e+00 4.980459999999999887e+00 7.810419999999999696e+00 2.612709999999999866e+00 1.014381999999999984e+01 2.368780000000000108e+00 2.975089999999999790e+00 1.040851999999999933e+01 7.981209999999999916e+00 8.097590000000000288e+00 5.101689999999999614e+00 2.568989999999999885e+00 7.877169999999999561e+00 4.775689999999999991e+00 8.007860000000000866e+00 7.553899999999999615e+00 1.511699999999999988e-01 2.309600000000000097e+00 7.758370000000000211e+00 1.017601999999999940e+01 7.611069999999999780e+00 2.691720000000000113e+00 2.231250000000000178e+00 4.744519999999999627e+00 2.857099999999999973e+00 2.278579999999999828e+00 1.012296000000000085e+01 2.516690000000000094e+00 8.095890000000000697e+00 4.867880000000000429e+00 2.765690000000000204e+00 7.563670000000000115e+00 3.056000000000000036e-02 7.895159999999999734e+00 2.361979999999999968e+00 4.989209999999999923e+00 8.442389999999999617e+00 2.310449999999999893e+00 1.022586000000000084e+01 7.654440000000000133e+00 8.007120000000000459e+00 5.075510000000000410e+00 7.580519999999999925e+00 7.709469999999999601e+00 1.012306000000000061e+01 1.026220999999999961e+01 5.653730000000000366e+00 5.216280000000000250e+00 1.037200000000000066e-01 5.521200000000000330e+00 1.033065999999999995e+01 1.751000000000000056e-01 -1.000000000000000082e-05 5.213280000000000136e+00 1.035861000000000054e+01 1.065981999999999985e+01 1.013676000000000066e+01 5.073260000000000325e+00 5.270690000000000097e+00 5.180489999999999817e+00 5.030979999999999563e+00 5.098510000000000097e+00 1.029906000000000077e+01 5.182229999999999670e+00 9.064999999999999447e-02 4.865490000000000315e+00 5.123199999999999754e+00 1.072171999999999947e+01 6.636999999999999844e-02 4.336540000000000283e+00 4.500429999999999708e+00 3.510780000000000012e+00 4.460989999999999789e+00 3.898639999999999883e+00 8.701969999999999317e+00 3.846810000000000063e+00 9.592420000000000613e+00 3.912749999999999950e+00 4.102330000000000254e+00 9.271670000000000300e+00 9.300580000000000069e+00 9.693640000000000256e+00 4.247560000000000002e+00 3.500710000000000210e+00 9.491110000000000824e+00 4.095699999999999896e+00 9.062569999999999126e+00 8.903940000000000410e+00 9.498849999999999127e+00 3.787910000000000110e+00 9.410420000000000229e+00 9.853130000000000166e+00 8.535780000000000811e+00 3.467480000000000118e+00 6.084199999999999608e-01 1.200099999999999945e+00 3.992770000000000152e+00 1.010550000000000059e+00 6.485079999999999956e+00 3.810200000000000031e+00 6.229689999999999728e+00 1.071299999999999919e+00 3.656590000000000007e+00 6.281209999999999738e+00 6.228170000000000428e+00 9.289920000000000400e+00 7.721099999999999630e-01 1.331849999999999978e+00 8.738009999999999167e+00 1.050580000000000069e+00 6.168249999999999567e+00 9.293689999999999785e+00 6.396939999999999849e+00 1.581890000000000018e+00 8.555229999999999890e+00 6.431949999999999612e+00 6.300139999999999851e+00 4.185699999999999754e+00 1.470080000000000053e+00 3.623780000000000001e+00 3.987449999999999939e+00 1.075099999999999945e+00 8.940899999999999181e+00 4.015119999999999578e+00 6.896230000000000082e+00 3.864380000000000148e+00 4.203610000000000291e+00 6.399860000000000326e+00 8.834049999999999514e+00 9.099380000000000024e+00 1.802750000000000075e+00 3.651559999999999917e+00 9.739079999999999515e+00 1.471670000000000034e+00 8.824320000000000164e+00 9.083759999999999835e+00 6.832650000000000112e+00 3.796959999999999891e+00 9.249610000000000554e+00 6.754590000000000316e+00 9.033319999999999794e+00 4.199970000000000425e+00 3.343069999999999986e+00 8.697500000000000231e-01 3.580000000000000071e+00 3.807040000000000202e+00 5.978110000000000035e+00 3.772269999999999790e+00 8.689120000000000843e+00 1.677319999999999922e+00 3.641410000000000036e+00 8.775690000000000879e+00 6.597430000000000128e+00 8.989020000000000010e+00 3.741649999999999920e+00 1.117990000000000039e+00 9.176999999999999602e+00 3.878800000000000026e+00 6.374410000000000132e+00 8.923450000000000770e+00 8.836629999999999541e+00 8.400699999999999834e-01 9.112120000000000886e+00 9.033229999999999649e+00 6.212970000000000326e+00 1.544859999999999900e+00 7.362199999999999855e-01 3.880999999999999783e+00 1.657000000000000028e+00 5.057599999999999874e-01 9.269840000000000302e+00 1.537649999999999961e+00 6.480319999999999858e+00 4.053110000000000213e+00 1.757460000000000022e+00 5.927399999999999558e+00 9.232559999999999434e+00 6.622630000000000017e+00 1.207500000000000018e+00 3.864100000000000090e+00 6.572600000000000442e+00 5.536900000000000155e-01 8.860170000000000101e+00 6.157560000000000144e+00 6.896639999999999660e+00 5.962430000000000341e+00 6.885239999999999583e+00 5.954430000000000334e+00 9.358990000000000364e+00 1.387659999999999894e+00 4.677780000000000271e+00 1.426339999999999941e+00 1.048210000000000086e+00 4.568819999999999659e+00 6.495490000000000208e+00 1.117150000000000087e+00 9.453409999999999869e+00 1.344919999999999893e+00 1.188719999999999999e+00 9.870879999999999654e+00 6.743030000000000079e+00 6.271690000000000431e+00 4.613159999999999705e+00 1.516699999999999937e+00 6.225030000000000285e+00 4.107409999999999783e+00 6.443999999999999950e+00 6.255419999999999980e+00 9.317270000000000607e+00 1.056499999999999995e+00 6.380489999999999995e+00 9.431889999999999219e+00 6.010279999999999845e+00 1.914619999999999989e+00 3.336930000000000174e+00 3.243370000000000086e+00 1.838740000000000041e+00 3.231129999999999836e+00 8.488329999999999487e+00 1.023179999999999978e+00 9.040169999999999817e+00 3.931669999999999998e+00 1.423980000000000024e+00 8.675610000000000710e+00 8.985680000000000334e+00 6.870730000000000004e+00 3.978400000000000158e+00 3.891970000000000152e+00 6.968679999999999986e+00 2.956929999999999836e+00 8.880300000000000082e+00 6.806440000000000268e+00 6.825910000000000366e+00 3.643959999999999866e+00 6.764280000000000292e+00 8.506209999999999383e+00 8.166859999999999786e+00 1.104919999999999902e+00 2.105999999999999872e+00 7.291100000000000358e-01 9.794399999999999773e-01 1.912279999999999980e+00 5.847000000000000419e+00 1.234909999999999952e+00 7.079589999999999606e+00 1.227789999999999937e+00 1.145380000000000065e+00 7.128790000000000404e+00 6.598980000000000068e+00 6.712159999999999904e+00 1.696900000000000075e+00 1.118889999999999940e+00 6.425709999999999589e+00 1.466890000000000027e+00 6.322799999999999976e+00
1.018069999999999986e+01 2.325680000000000192e+00 2.572540000000000049e+00 2.453500000000000125e-01 2.623040000000000038e+00 7.464959999999999596e+00 -5.519999999999999733e-03 7.858460000000000001e+00 2.516480000000000050e+00 1.008047999999999966e+01 7.805360000000000298e+00 7.552590000000000359e+00 5.278909999999999769e+00 2.699209999999999887e+00 2.012820000000000054e+00 5.149549999999999628e+00 2.444249999999999812e+00 7.345040000000000013e+00 5.348950000000000315e+00 7.996870000000000367e+00 2.547699999999999854e+00 4.996129999999999960e+00 7.723760000000000403e+00 7.461070000000000313e+00 2.277899999999999814e+00 5.195689999999999920e+00 2.272229999999999972e+00 2.573479999999999990e+00 5.327519999999999811e+00 7.498610000000000220e+00 2.662409999999999943e+00 1.038502000000000081e+01 2.682990000000000208e+00 2.459340000000000082e+00 1.035772000000000048e+01 7.389739999999999753e+00 7.838420000000000165e+00 5.014300000000000423e+00 2.364700000000000024e+00 7.776539999999999786e+00 5.047990000000000421e+00 7.902960000000000207e+00 7.640859999999999985e+00 1.049782000000000082e+01 2.654259999999999842e+00 7.907429999999999737e+00 1.043772000000000055e+01 7.577370000000000161e+00 2.618020000000000014e+00 2.593360000000000110e+00 5.015329999999999622e+00 2.515099999999999891e+00 2.261400000000000077e+00 9.982310000000000016e+00 2.698100000000000165e+00 7.509839999999999627e+00 4.971140000000000114e+00 2.565999999999999837e+00 7.759949999999999903e+00 1.976999999999999938e-02 7.870059999999999611e+00 2.348650000000000126e+00 5.105080000000000062e+00 7.795749999999999957e+00 2.263659999999999783e+00 9.966490000000000293e+00 7.353749999999999787e+00 7.327829999999999622e+00 5.213709999999999845e+00 7.776419999999999888e+00 7.861069999999999780e+00 1.013246999999999964e+01 9.841839999999999478e+00 5.119170000000000442e+00 5.305559999999999832e+00 1.272399999999999920e-01 5.214389999999999858e+00 1.004786999999999964e+01 1.017158000000000051e+01 1.036181999999999981e+01 5.082259999999999778e+00 6.340000000000000149e-03 1.021142000000000039e+01 1.016066999999999965e+01 5.088359999999999772e+00 4.923650000000000304e+00 4.607499999999999929e+00 5.105550000000000033e+00 5.287759999999999572e+00 1.001088999999999984e+01 5.157729999999999926e+00 1.018891999999999953e+01 4.981840000000000046e+00 5.156990000000000407e+00 1.055832000000000015e+01 9.951829999999999288e+00 4.026209999999999845e+00 4.021869999999999834e+00 3.499429999999999819e+00 4.274230000000000196e+00 4.243159999999999599e+00 8.564600000000000435e+00 4.208840000000000359e+00 9.481339999999999435e+00 3.414350000000000218e+00 4.266650000000000276e+00 9.634050000000000225e+00 8.490769999999999484e+00 8.936059999999999448e+00 4.016110000000000291e+00 3.667670000000000208e+00 9.190780000000000172e+00 3.883210000000000051e+00 9.094480000000000786e+00 9.149979999999999336e+00 9.533049999999999358e+00 3.745849999999999902e+00 8.882759999999999323e+00 9.317940000000000111e+00 8.775499999999999190e+00 4.102870000000000239e+00 6.945999999999999952e-01 1.252999999999999892e+00 4.184669999999999668e+00 1.085080000000000044e+00 5.832150000000000389e+00 3.516420000000000101e+00 6.057839999999999669e+00 8.643999999999999462e-01 3.905870000000000175e+00 6.121540000000000425e+00 6.074559999999999960e+00 8.980990000000000251e+00 9.699200000000000044e-01 1.030299999999999994e+00 9.070510000000000517e+00 8.887699999999999489e-01 6.255320000000000213e+00 8.800819999999999865e+00 6.540350000000000108e+00 1.582519999999999927e+00 9.134869999999999379e+00 6.248700000000000365e+00 6.697090000000000209e+00 4.050080000000000346e+00 1.430250000000000021e+00 3.503620000000000179e+00 3.993040000000000145e+00 1.506099999999999994e+00 8.808279999999999887e+00 4.426230000000000331e+00 6.762559999999999683e+00 3.648179999999999978e+00 3.659489999999999910e+00 6.961929999999999730e+00 8.572440000000000282e+00 9.322409999999999641e+00 1.295690000000000008e+00 3.931620000000000115e+00 9.035949999999999704e+00 1.419270000000000032e+00 8.566190000000000637e+00 8.623749999999999361e+00 6.569280000000000008e+00 3.906680000000000152e+00 8.931829999999999714e+00 6.461369999999999614e+00 9.226610000000000866e+00 4.011040000000000383e+00 3.494600000000000151e+00 6.500399999999999512e-01 4.359619999999999607e+00 3.625869999999999926e+00 5.891060000000000407e+00 3.627019999999999911e+00 8.878199999999999648e+00 1.153219999999999912e+00 3.437059999999999782e+00 9.237819999999999254e+00 6.170670000000000321e+00 8.945880000000000720e+00 3.494069999999999787e+00 1.323209999999999997e+00 8.967620000000000147e+00 3.429980000000000029e+00 6.371669999999999945e+00 9.088260000000000005e+00 8.968859999999999388e+00 1.349069999999999991e+00 8.886540000000000106e+00 8.823819999999999553e+00 6.249570000000000292e+00 1.772170000000000023e+00 8.358799999999999564e-01 4.319230000000000125e+00 1.076529999999999987e+00 8.668599999999999639e-01 8.844409999999999883e+00 1.878239999999999910e+00 5.894730000000000025e+00 4.266980000000000217e+00 1.239300000000000068e+00 6.547489999999999810e+00 8.769389999999999574e+00 6.440780000000000172e+00 9.221500000000000252e-01 3.988710000000000200e+00 6.550849999999999618e+00 8.524199999999999555e-01 8.773369999999999891e+00 5.970900000000000318e+00 6.725999999999999979e+00 1.055060000000000109e+00 6.280689999999999884e+00 6.324279999999999902e+00 8.416349999999999554e+00 1.220460000000000100e+00 4.249019999999999797e+00 1.026559999999999917e+00 1.447699999999999987e+00 4.239530000000000243e+00 6.071589999999999598e+00 1.114519999999999955e+00 9.407389999999999475e+00 1.536810000000000009e+00 9.556299999999999795e-01 9.535180000000000433e+00 6.482490000000000308e+00 6.387579999999999814e+00 4.437190000000000190e+00 9.939900000000000402e-01 6.940629999999999633e+00 5.074550000000000338e+00 5.884549999999999947e+00 6.651159999999999961e+00 9.426930000000000476e+00 1.367499999999999938e+00 6.359029999999999738e+00 9.024879999999999569e+00 6.332399999999999807e+00 1.495509999999999895e+00 3.494069999999999787e+00 3.434289999999999843e+00 1.527349999999999985e+00 3.631139999999999812e+00 8.509190000000000254e+00 1.223629999999999995e+00 8.646910000000000096e+00 3.946549999999999780e+00 1.235729999999999995e+00 8.894880000000000564e+00 9.016629999999999256e+00 6.545300000000000118e+00 3.773540000000000116e+00 3.664649999999999963e+00 6.568270000000000053e+00 3.676010000000000222e+00 8.660899999999999821e+00 6.686519999999999797e+00 8.860360000000000014e+00 3.962489999999999846e+00 6.223639999999999617e+00 8.770170000000000243e+00 9.057700000000000529e+00 1.355639999999999956e+00 1.274939999999999962e+00 1.239959999999999951e+00 1.747020000000000017e+00 1.751030000000000086e+00 6.507859999999999978e+00 1.102600000000000025e+00 6.595600000000000129e+00 1.480320000000000080e+00 1.423550000000000093e+00 6.840139999999999887e+00 6.428410000000000402e+00 6.496030000000000193e+00 1.457240000000000091e+00 1.136419999999999986e+00 6.712790000000000035e+00 1.693559999999999954e+00 6.327880000000000393e+00
1.467700000000000116e-01 2.478699999999999903e+00 2.992900000000000116e+00 7.136000000000000676e-02 2.463579999999999881e+00 7.514549999999999841e+00 3.462100000000000177e-01 7.571930000000000049e+00 2.617859999999999854e+00 6.228000000000000203e-02 8.129519999999999413e+00 7.587869999999999671e+00 5.352649999999999686e+00 3.073980000000000157e+00 2.533339999999999925e+00 5.238959999999999617e+00 2.585550000000000015e+00 7.938729999999999620e+00 5.169400000000000439e+00 8.379540000000000433e+00 2.391539999999999999e+00 5.322379999999999889e+00 8.240560000000000329e+00 7.544529999999999959e+00 2.831539999999999946e+00 5.216809999999999725e+00 2.185290000000000177e+00 2.657140000000000057e+00 5.102579999999999671e+00 7.572339999999999627e+00 2.534710000000000019e+00 1.054706999999999972e+01 2.193770000000000220e+00 2.763840000000000074e+00 1.078646999999999956e+01 7.418389999999999596e+00 7.909670000000000201e+00 5.410720000000000418e+00 2.358179999999999943e+00 7.971770000000000245e+00 5.076080000000000148e+00 8.133860000000000312e+00 7.837670000000000137e+00 1.048637000000000086e+01 2.614129999999999843e+00 7.814099999999999824e+00 4.777199999999999780e-01 8.019270000000000564e+00 2.752419999999999867e+00 2.223050000000000193e+00 5.041459999999999830e+00 2.593080000000000052e+00 2.447890000000000121e+00 1.012912000000000035e+01 2.745769999999999822e+00 7.537860000000000227e+00 5.067809999999999704e+00 2.481380000000000141e+00 7.957799999999999763e+00 1.007075000000000031e+01 7.802059999999999995e+00 2.329600000000000115e+00 5.118190000000000239e+00 7.807019999999999627e+00 2.629789999999999850e+00 3.871600000000000041e-01 8.012439999999999785e+00 7.626350000000000406e+00 4.809789999999999566e+00 7.866179999999999950e+00 8.185969999999999303e+00 1.014700000000000024e+01 1.029010000000000069e+01 5.200800000000000090e+00 5.439989999999999881e+00 1.961199999999999888e-01 5.240269999999999762e+00 1.024699999999999989e+01 1.041559999999999953e+01 1.024216999999999977e+01 4.928289999999999615e+00 1.017980000000000018e+01 1.063716999999999935e+01 8.476999999999999813e-02 5.760659999999999670e+00 5.346689999999999721e+00 5.239189999999999792e+00 5.196270000000000167e+00 5.320459999999999745e+00 1.023910000000000053e+01 5.354659999999999975e+00 1.058707000000000065e+01 5.091160000000000352e+00 5.088619999999999699e+00 1.047147000000000006e+01 1.011299999999999955e+01 4.667679999999999829e+00 4.979949999999999655e+00 3.316609999999999836e+00 3.724110000000000031e+00 3.794919999999999849e+00 8.960399999999999920e+00 4.363509999999999778e+00 1.021537000000000006e+01 3.334880000000000067e+00 4.176210000000000200e+00 9.764179999999999637e+00 8.585589999999999833e+00 9.681369999999999365e+00 3.428119999999999834e+00 4.707950000000000301e+00 8.551669999999999661e+00 4.825269999999999726e+00 1.021959999999999980e+01 9.396779999999999688e+00 9.291479999999999961e+00 3.350130000000000052e+00 9.413959999999999440e+00 9.805229999999999890e+00 8.822119999999999962e+00 3.748190000000000133e+00 7.586199999999999610e-01 7.639599999999999724e-01 3.689499999999999780e+00 7.115000000000000213e-01 5.962729999999999642e+00 3.988929999999999865e+00 6.415680000000000049e+00 1.006909999999999972e+00 3.923010000000000108e+00 5.760410000000000252e+00 6.093910000000000160e+00 8.502720000000000056e+00 7.717100000000000071e-01 3.474300000000000166e-01 8.999079999999999302e+00 7.647399999999999753e-01 6.281119999999999592e+00 4.605199999999999960e+00 2.041259999999999852e+00 3.808580000000000076e+00 3.467950000000000088e+00 1.382980000000000098e+00 8.647529999999999717e+00 3.821050000000000058e+00 7.539340000000000153e+00 3.583480000000000221e+00 3.493170000000000108e+00 6.967959999999999710e+00 8.467579999999999885e+00 9.121809999999999974e+00 8.868200000000000527e-01 3.764450000000000074e+00 8.583859999999999602e+00 2.275430000000000064e+00 8.443450000000000344e+00 9.289609999999999701e+00 6.663739999999999775e+00 3.716610000000000191e+00 9.010170000000000456e+00 6.983030000000000292e+00 8.924960000000000448e+00 3.934600000000000097e+00 3.680079999999999796e+00 1.318990000000000107e+00 3.827440000000000175e+00 3.446699999999999875e+00 6.384450000000000180e+00 3.453269999999999840e+00 8.863939999999999486e+00 1.308519999999999905e+00 3.988059999999999938e+00 8.863139999999999574e+00 5.887950000000000017e+00 9.169689999999999230e+00 3.343949999999999978e+00 1.642859999999999987e+00 9.506840000000000401e+00 4.537289999999999601e+00 7.003549999999999720e+00 9.796849999999999170e+00 6.251809999999999867e+00 1.597839999999999927e+00 9.218260000000000787e+00 8.612049999999999983e+00 6.068279999999999674e+00 1.462399999999999922e+00 6.685699999999999976e-01 3.940589999999999815e+00 9.134799999999999587e-01 1.800440000000000040e+00 9.041249999999999787e+00 1.458949999999999969e+00 6.231830000000000425e+00 3.653360000000000163e+00 1.129580000000000028e+00 6.645069999999999588e+00 9.025750000000000384e+00 6.857879999999999754e+00 6.876200000000000090e-01 4.454320000000000057e+00 6.154049999999999798e+00 1.273339999999999916e+00 9.141329999999999956e+00 6.981469999999999843e+00 6.258910000000000196e+00 3.890810000000000102e+00 6.248359999999999914e+00 6.640249999999999986e+00 9.285099999999999909e+00 1.624069999999999903e+00 4.188950000000000173e+00 6.979899999999999993e-01 1.759830000000000005e+00 4.019319999999999560e+00 6.109340000000000437e+00 8.947800000000000198e-01 9.524179999999999424e+00 1.344119999999999981e+00 1.340119999999999978e+00 9.518580000000000041e+00 6.349239999999999995e+00 6.586030000000000051e+00 4.293249999999999567e+00 1.272610000000000019e+00 6.746209999999999596e+00 4.075169999999999959e+00 6.639029999999999987e+00 6.570439999999999614e+00 9.643499999999999517e+00 1.248850000000000016e+00 6.276410000000000267e+00 9.776579999999999160e+00 6.722809999999999953e+00 1.731270000000000087e+00 3.487620000000000164e+00 3.350929999999999964e+00 1.029770000000000074e+00 3.897159999999999958e+00 8.549250000000000682e+00 1.534859999999999891e+00 9.029680000000000817e+00 3.850350000000000161e+00 1.516340000000000021e+00 9.422280000000000655e+00 8.950810000000000599e+00 6.986030000000000406e+00 3.662090000000000067e+00 3.684499999999999886e+00 6.180310000000000414e+00 4.094859999999999722e+00 9.122389999999999333e+00 6.617020000000000124e+00 8.994960000000000733e+00 3.880710000000000104e+00 6.807929999999999815e+00 9.491929999999999978e+00 8.987539999999999196e+00 1.006450000000000067e+00 1.576650000000000107e+00 1.069949999999999957e+00 1.307160000000000100e+00 1.313490000000000046e+00 6.398340000000000138e+00 1.689100000000000046e+00 6.758479999999999599e+00 1.172630000000000061e+00 1.210609999999999964e+00 6.732249999999999623e+00 6.371430000000000149e+00 6.578459999999999752e+00 1.649960000000000093e+00 1.873320000000000096e+00 6.383099999999999774e+00 1.301590000000000025e+00 6.855550000000000033e+00 6.965849999999999653e+00 7.048490000000000144e+00 1.654320000000000013e+00 6.438600000000000101e+00 6.690030000000000143e+00 6.265360000000000262e+00