-7.594600000000000239e-01 -4.273616999999999777e+00 -5.117840000000000167e-01 1.619230000000000114e-01 -1.472984000000000071e+00 -5.902699999999999614e-01 -1.385583000000000009e+00 6.754909999999999526e-01 -7.506559999999999899e-01 6.231830000000000425e-01 -8.648770000000000069e-01 3.457860000000000156e+00 -1.809709999999999930e-01 1.405194999999999972e+00 -1.029044999999999987e+00 -3.346306999999999920e+00 2.286124000000000045e+00 -3.323491999999999891e+00 -2.245871999999999868e+00 2.436685999999999908e+00 1.640660999999999925e+00 -3.798999999999999860e-03 1.477934000000000081e+00 -4.004400000000000182e-01 2.626815999999999818e+00 -2.853806000000000065e+00 1.485630999999999924e+00 2.492932000000000148e+00 7.451029999999999598e-01 2.528633999999999826e+00 -6.594539999999999846e-01 2.578742000000000090e+00 -6.920939999999999870e-01 1.142222000000000071e+00 -2.623886000000000163e+00 1.053782999999999914e+00 -2.568900999999999879e+00 -2.147603999999999846e+00 5.341789999999999594e-01 -5.354299999999999615e-01 -7.037283000000000399e+00 -6.952808000000000099e+00 -3.347680000000000100e-01 -4.745514000000000010e+00 8.000552000000000774e+00 -2.423455000000000137e+00 1.438768999999999965e+00 1.547031999999999963e+00 5.888567000000000107e+00 -2.903709999999999902e-01 4.986399999999999860e-02 -3.037422999999999984e+00 1.388860999999999901e+00 -7.941700000000000148e-02 -1.074629999999999974e+00 1.884359999999999924e-01 -1.429860000000000020e-01 1.803109999999999991e-01 -7.485680000000000112e-01 2.591950999999999894e+00 -1.606009999999999938e-01 -1.489362000000000075e+00 -2.372036000000000033e+00 1.184274999999999967e+00 -2.954219000000000150e+00 3.590136999999999912e+00 1.660873999999999961e+00 3.533082999999999974e+00 5.044687999999999839e+00 2.738884000000000096e+00 2.595682000000000045e+00 -4.702009000000000327e+00 -2.381639999999999979e+00 -9.929320000000000368e-01 -2.897199999999999775e-01 -7.852850000000000108e-01 -2.377708000000000155e+00 -1.129963000000000051e+00 1.806909999999999905e-01 1.270283000000000051e+00 7.729219999999999979e-01 1.564683999999999964e+00 -3.137150000000000216e-01 2.304342999999999808e+00 3.859290000000000220e-01 1.349703000000000097e+00 7.679190000000000182e-01 2.688642000000000198e+00 3.883119999999999905e+00 -2.702285999999999966e+00 1.978250000000000064e+00 1.812656999999999963e+00 1.670104000000000033e+00 4.131076000000000192e+00 2.800130999999999926e+00 2.042330999999999896e+00 6.005784000000000233e+00 5.043802000000000341e+00 4.118967999999999741e+00 -1.576097999999999999e+00 -3.514280000000000181e-01 -2.531988000000000127e+00 2.055337999999999887e+00 1.529188999999999909e+00 1.729899000000000076e+00 2.587780000000000080e-01 -1.735197000000000100e+00 9.389819999999999833e-01 -3.055168000000000106e+00 -1.246415000000000051e+00 -6.551800000000000679e-02 2.478000000000000168e-03 -3.942109999999999781e-01 1.594576999999999911e+00 -1.514828999999999981e+00 5.345670000000000144e-01 1.027529999999999971e-01 -5.497396000000000171e+00 3.812304999999999833e+00 -1.907308000000000003e+00 6.984299999999999953e-01 1.244391000000000025e+00 1.395027999999999935e+00 -3.316078000000000081e+00 1.717919999999999892e+00 -2.068354999999999944e+00 -7.020990000000000286e-01 1.935489999999999988e-01 -1.591949999999999976e+00 2.515763000000000194e+00 -1.075061000000000044e+00 8.167830000000000368e-01 -9.990620000000000056e-01 -1.383706000000000103e+00 -2.265479999999999994e-01 7.590400000000000480e-01 3.954791000000000167e+00 7.416570000000000107e-01 2.825502999999999876e+00 2.235485999999999862e+00 7.138640000000000541e-01 -2.563598999999999961e+00 2.293241000000000085e+00 -3.216640000000000055e-01 4.617080000000000073e-01 7.814699999999999980e-01 1.634600999999999971e+00 -1.968620999999999954e+00 3.138294999999999835e+00 -1.505706999999999907e+00 -1.147124999999999950e+00 2.271700000000000108e-01 -2.249661000000000133e+00 -1.170249000000000095e+00 -5.832370000000000054e-01 -2.940829999999999833e-01 -7.281400000000000372e-02 -8.475019999999999776e-01 1.487003999999999992e+00 1.174384000000000094e+00 -2.816400000000000153e-02 -1.671275999999999984e+00 -5.737040000000000362e+00 6.464029999999999498e-01 5.428218000000000210e+00 -7.855140000000000455e-01 -1.734850999999999921e+00 6.996670000000000389e-01 2.313915999999999862e+00 2.430403999999999787e+00 3.155806000000000111e+00 2.672518000000000171e+00 2.040262999999999938e+00 1.922000000000000097e-02 -1.054009999999999947e-01 -2.420536999999999939e+00 -6.861439999999999761e-01 -4.028329999999999966e-01 6.076380000000000114e-01 -1.493220999999999909e+00 -7.766110000000000513e-01 -1.698809999999999931e+00 -3.459025000000000016e+00 1.151880999999999933e+00 -5.014319999999999888e-01 -1.970258999999999983e+00 -2.615850000000000120e-01 -1.807263999999999982e+00 2.455807000000000073e+00 -2.309426000000000201e+00 -3.430187000000000097e+00 -2.921262000000000025e+00 -5.234642000000000017e+00 -4.854038000000000075e+00 -4.961092999999999975e+00 -3.666373999999999800e+00 -1.562591000000000063e+00 1.416376000000000079e+00 8.043860000000000454e-01 2.359030000000000016e-01 7.673600000000000421e-01 -6.428930000000000478e-01 -1.794238000000000000e+00 6.974709999999999521e-01 -1.385309999999999875e-01 -5.159960000000000102e-01 -1.849998999999999949e+00 -3.601090000000000124e-01 1.737984999999999891e+00 -1.382424000000000097e+00 -6.395619999999999639e-01 8.037560000000000260e-01 -9.473009999999999486e-01 -6.154309999999999503e-01 -3.167632999999999921e+00 -1.371812000000000031e+00 -1.647353999999999985e+00 9.809780000000000166e-01 2.753127000000000102e+00 3.049446000000000101e+00 8.079520000000000035e-01 1.002084999999999892e+00 -8.177219999999999489e-01 -2.508949999999999791e-01 -3.083943000000000101e+00 -8.141089999999999716e-01 -1.015036000000000049e+00 -5.103339999999999543e-01 3.094879999999999853e+00 6.169918000000000013e+00 -3.360180000000000167e+00 2.349264999999999937e+00 1.785663999999999918e+00 1.440023000000000053e+00 1.558243999999999962e+00 9.632610000000000339e-01 3.770569999999999755e-01 -1.999140000000000084e-01 -1.836125000000000007e+00 -5.966059999999999697e-01 -2.433970000000000022e-01 3.516489999999999894e-01 -2.030123999999999818e+00 5.645617999999999803e+00 -2.777515999999999874e+00 -3.243605000000000071e+00 2.072125999999999912e+00 -4.478500000000000258e-01 -1.597849000000000075e+00 -8.180610000000000381e-01 2.659276999999999891e+00 4.996329000000000242e+00 7.631240000000000245e-01 -1.100422999999999929e+00 -4.143700000000000161e-02 -3.122489999999999988e-01 7.430970000000000075e-01 -1.223346000000000044e+00 1.267797000000000063e+00 1.034999999999999896e-03 2.331850000000000200e+00 2.551699999999999857e+00 -1.597345999999999933e+00 -2.332876999999999867e+00 -1.389032999999999962e+00 -3.687864999999999949e+00 5.064520000000000133e-01 -2.132983999999999991e+00 -4.594059999999999810e+00 2.088629999999999931e-01 -2.084130000000000038e+00 1.081164999999999932e+00 3.570895999999999848e+00 -8.000599999999999379e-02 -1.972101000000000104e+00 -1.790523000000000087e+00 1.034577000000000080e+00 -1.542284999999999906e+00 3.507120000000000237e-01 1.018634000000000039e+00 1.330669000000000102e+00 -1.770300999999999902e+00 -5.294999999999999707e-02 3.191259000000000068e+00 -3.807297999999999849e+00
-4.478150000000000186e-01 4.595400000000000040e-01 -6.392430000000000057e-01 1.431235999999999953e+00 2.314642000000000088e+00 -5.479570000000000274e-01 -3.566244000000000192e+00 -8.592883999999999745e+00 -2.719910000000000050e+00 -1.057295000000000096e+00 -2.007048000000000165e+00 -2.194306999999999785e+00 1.135996999999999924e+00 5.620420000000000416e-01 -5.112449999999999495e-01 -3.057698999999999945e+00 1.210859999999999992e-01 -4.628790999999999656e+00 3.430070999999999870e+00 9.722439999999999971e-01 -2.485450000000000159e+00 -5.920980000000000132e-01 7.515749999999999931e-01 -1.990892000000000106e+00 2.832805000000000017e+00 -4.259570000000000078e+00 2.185310000000000030e-01 -1.958469000000000015e+00 9.760609999999999564e-01 1.847247000000000083e+00 5.319669999999999677e-01 -1.291255000000000042e+00 2.244746000000000130e+00 -2.724574000000000051e+00 -7.762569999999999748e-01 4.103479999999999905e-01 -1.058116000000000057e+00 1.464614000000000082e+00 3.045021000000000200e+00 9.583899999999999642e-01 2.629000000000000226e-01 3.069799999999999751e-01 1.362349999999999950e-01 1.756089999999999929e+00 -1.254008999999999929e+00 6.185260000000000202e-01 1.745552999999999910e+00 -5.195305000000000284e+00 2.509170000000000011e-01 2.062717999999999829e+00 -1.312297999999999965e+00 1.139223000000000097e+00 1.238512000000000057e+00 5.352447999999999873e+00 9.659299999999999553e-01 3.309466000000000019e+00 -3.078767000000000031e+00 3.614881000000000011e+00 -4.840336999999999890e+00 2.077719999999999789e+00 -1.417702999999999935e+00 -2.442775000000000141e+00 -5.619547999999999988e+00 2.525310000000000166e+00 1.624826000000000104e+00 -2.516793999999999976e+00 2.982029999999999959e-01 2.791517999999999944e+00 2.956320000000000059e-01 1.969313000000000091e+00 2.051451000000000136e+00 -7.211199999999999555e-02 -1.290362999999999927e+00 9.639670000000000183e-01 1.947190999999999894e+00 -2.208930000000000060e+00 1.413558000000000092e+00 6.030780000000000030e-01 1.231335000000000068e+00 -2.411261000000000099e+00 3.437574999999999825e+00 1.704682000000000031e+00 4.954399999999999776e-02 3.385387999999999842e+00 -1.710080000000000044e+00 1.092469999999999969e-01 -6.493769999999999820e-01 2.854840000000000155e-01 6.127974000000000032e+00 -2.413628000000000107e+00 -1.936318999999999901e+00 4.275329999999999964e-01 3.057681999999999789e+00 -2.861477999999999966e+00 -4.965219000000000271e+00 -5.305729000000000362e+00 9.683220000000000161e-01 1.204048000000000007e+00 1.687106999999999912e+00 -2.461909999999999932e-01 2.675708000000000197e+00 2.654796000000000156e+00 -2.029783000000000115e+00 1.439624000000000015e+00 -1.996850999999999932e+00 3.609020000000000006e-01 -1.848880000000000079e+00 -6.157499999999999779e-02 5.836050000000000404e-01 2.129942999999999920e+00 9.708040000000000003e-01 4.253830000000000111e-01 -2.680330000000000212e-01 -1.322564999999999991e+00 -1.267918000000000101e+00 2.163286999999999960e+00 4.784970000000000390e+00 1.819399999999999906e-01 -7.792769999999999975e-01 2.213166000000000189e+00 -2.628518000000000132e+00 -5.496469999999999967e-01 -2.438140000000000029e-01 1.565711000000000075e+00 2.679613999999999940e+00 5.164480000000000182e-01 1.772926000000000002e+00 -6.557699999999999640e-02 -6.957029999999999603e-01 -8.047980000000000134e-01 -8.983710000000000306e-01 1.953330000000000066e-01 5.774569999999999981e-01 -2.573201000000000072e+00 -1.388886000000000065e+00 -1.227430000000000049e-01 -1.051317999999999975e+00 -6.468329999999999913e-01 1.954002999999999934e+00 -2.106284000000000045e+00 3.462441000000000102e+00 2.328038999999999970e+00 4.459409999999999763e-01 -1.342961000000000071e+00 4.696279999999999899e-01 8.344789999999999708e-01 -8.183650000000000091e-01 -1.483602000000000087e+00 -8.106940000000000257e-01 -2.747155999999999931e+00 -1.257486000000000104e+00 1.269495999999999958e+00 -3.437410000000000188e-01 1.591094999999999926e+00 1.805141000000000107e+00 2.246253999999999973e+00 4.671866999999999770e+00 -6.212870999999999810e+00 1.669550000000000090e+00 -7.634849999999999692e-01 -3.049675999999999831e+00 -3.522085999999999828e+00 4.742549999999999821e-01 -5.575369999999999493e-01 -4.724099999999999827e-02 3.829323000000000032e+00 1.620290000000000008e+00 -2.484372000000000025e+00 1.984707999999999917e+00 -2.635009999999999852e-01 1.310510000000000064e+00 -3.860777000000000125e+00 -3.711679000000000173e+00 -6.762350000000000305e-01 7.615389999999999660e-01 5.975040000000000351e-01 1.242224999999999913e+00 1.449308999999999958e+00 -1.499471999999999916e+00 3.706990000000000007e-01 6.512059999999999516e-01 2.505723999999999840e+00 2.954819000000000084e+00 3.851769999999999916e-01 -2.606587999999999905e+00 -8.547160000000000313e-01 -6.033889999999999532e-01 2.938772999999999858e+00 -4.288870000000000182e-01 6.246460000000000345e-01 1.577978000000000103e+00 7.717190000000000438e-01 1.066055999999999893e+00 -1.127081000000000000e+00 2.271140000000000103e-01 8.752910000000000412e-01 -6.830349999999999477e-01 1.047624000000000111e+00 3.183851999999999904e+00 3.569026000000000032e+00 -2.046203999999999912e+00 -2.239949999999999886e+00 1.662242999999999915e+00 3.285620000000000207e+00 -2.273409000000000013e+00 -3.238684000000000118e+00 -5.982889999999999597e-01 1.956910000000000038e-01 -9.511380000000000390e-01 1.652565000000000062e+00 -1.385747000000000062e+00 -2.204869999999999886e-01 -9.242550000000000487e-01 -1.563584000000000085e+00 -1.479985000000000106e+00 1.675810000000000077e-01 1.368369999999999864e-01 -2.533839999999999981e-01 1.988887999999999989e+00 -2.412056000000000200e+00 -3.555525999999999964e+00 3.112289999999999779e-01 -8.412889999999999535e-01 3.869270000000000209e-01 -1.383829999999999893e+00 -7.815670000000000117e-01 2.620340999999999809e+00 -8.239549999999999930e-01 -2.239857000000000209e+00 -3.593755999999999950e+00 9.732790000000000052e-01 4.136139000000000010e+00 3.240230000000000055e-01 3.115383000000000013e+00 -9.523019999999999818e-01 7.849340000000000206e-01 -1.583582999999999963e+00 6.158019999999999605e-01 3.921028999999999876e+00 1.168611000000000066e+00 1.942256999999999900e+00 -1.805241000000000096e+00 1.070060000000000039e-01 2.207584000000000213e+00 1.404047999999999963e+00 8.509750000000000369e-01 -4.251110999999999862e+00 1.068575000000000053e+00 3.033359999999999945e-01 -3.230471000000000092e+00 4.975350000000000050e-01 2.918689999999999896e-01 1.339787000000000061e+00 8.779090000000000504e-01 3.027699999999999836e+00 -3.250303999999999860e+00 -3.989241999999999955e+00 1.802380000000000093e-01 -1.313706000000000040e+00 3.381060000000000176e-01 1.071390999999999982e+00 -1.998880000000000101e-01 3.216559999999999975e-01 -8.332530000000000214e-01 -2.949299999999999838e-02 -5.226300000000000390e-01 -9.778890000000000082e-01 4.017580000000000040e-01 9.384209999999999496e-01 -1.365334999999999965e+00 -1.347987000000000046e+00 5.346969999999999779e-01 -1.188023999999999969e+00 -4.045549999999999979e-01 -1.448210999999999915e+00 -6.136400000000000188e-02 -2.647499999999999853e-02 1.928395000000000081e+00 -1.961732999999999949e+00 2.179025000000000212e+00 -3.677300000000000013e-02 2.351360999999999812e+00 -1.252005000000000035e+00 2.722312000000000065e+00 -8.971329999999999583e-01
4.284240000000000270e-01 4.751903000000000432e+00 -4.231416000000000288e+00 -3.012880000000000003e+00 1.130562999999999985e+00 -1.578084000000000042e+00 -1.642387999999999959e+00 1.822589999999999932e+00 -6.387209999999999832e-01 6.587889999999999580e-01 -7.672569999999999668e-01 1.712971000000000021e+00 3.668290999999999968e+00 1.274628000000000094e+00 -7.336589999999999501e-01 -2.454536000000000051e+00 -3.782007999999999814e+00 -1.189243000000000050e+00 2.130838999999999928e+00 -2.828758000000000106e+00 -2.695339999999999958e-01 -3.033310000000000173e-01 4.567866999999999678e+00 1.243889000000000022e+00 3.275123999999999924e+00 -1.210650000000000004e+00 1.884282999999999930e+00 2.395528999999999797e+00 2.575193000000000065e+00 4.421939999999999760e-01 -1.416592000000000073e+00 8.622649999999999482e-01 -1.453071999999999919e+00 2.613678999999999863e+00 5.834519999999999706e-01 5.386859999999999982e-01 3.440659000000000134e+00 1.308329999999999993e+00 -1.824820000000000053e-01 -1.768920000000000048e+00 -3.833250000000000268e-01 2.268266000000000115e+00 -1.334410000000000096e+00 -1.129949999999999982e-01 -4.703236999999999668e+00 -3.461148000000000113e+00 -2.261645999999999823e+00 -1.155030000000000001e+00 -2.462482000000000060e+00 -6.261210000000000164e+00 -3.369940000000000158e-01 4.802690000000000015e-01 3.315551000000000137e+00 -2.694600000000000120e-02 1.922231999999999941e+00 1.167586000000000013e+00 -2.816600999999999910e+00 -6.690519999999999801e-01 1.744930000000000092e-01 -1.297695999999999961e+00 -1.854330999999999952e+00 4.328084999999999738e+00 -1.853067000000000020e+00 1.097285999999999984e+00 -3.695869999999999989e-01 -1.704744000000000037e+00 -3.679781999999999886e+00 7.965300000000000158e-02 1.727160000000000029e+00 1.492180999999999980e+00 6.832179999999999920e-01 7.546819999999999640e-01 8.877469999999999528e-01 3.832958999999999783e+00 3.339841999999999977e+00 2.773630000000000262e-01 -6.457039999999999447e-01 -1.246200999999999892e+00 2.320390999999999870e+00 1.185594999999999954e+00 -1.890765999999999947e+00 -2.153099000000000096e+00 7.782400000000000428e-02 -6.579999999999999478e-04 -2.406778999999999780e+00 -3.828727999999999909e+00 -1.449411999999999923e+00 3.748630000000000018e-01 -4.231392999999999738e+00 -5.448549999999999782e-01 -5.511150000000000215e-01 -1.172333999999999987e+00 -7.257719999999999727e-01 1.508278999999999925e+00 -5.609359999999999902e-01 2.089392999999999834e+00 2.462746999999999797e+00 1.103024999999999922e+00 1.543395999999999990e+00 -2.264050000000000118e+00 -4.069124000000000407e+00 -2.771899999999999920e-01 3.471929999999999739e-01 -1.946509999999999907e-01 -4.850999999999999757e-02 -7.989079999999999515e-01 -1.373310000000000086e-01 -3.651469999999999994e-01 8.515770000000000284e-01 -7.030579999999999607e-01 2.422022000000000119e+00 -2.034076999999999913e+00 4.103490000000000193e-01 5.738600000000000367e-01 -3.984579999999999789e-01 -1.042424999999999935e+00 2.102683999999999997e+00 -1.023072999999999899e+00 3.285603000000000051e+00 1.376794000000000073e+00 -9.816209999999999658e-01 4.789550000000000196e-01 -6.391040000000000054e-01 1.917067000000000077e+00 -2.947229999999999794e+00 3.377499999999999947e-01 4.012931000000000026e+00 -7.317780000000000395e-01 1.897634999999999961e+00 -4.360550000000000259e-01 1.292408000000000001e+00 1.774799999999999989e-02 -1.514439000000000091e+00 -3.781299999999999939e-02 3.815689999999999915e-01 1.904530000000000112e-01 7.722959999999999825e-01 -1.776378999999999930e+00 5.232550000000000257e-01 -1.555400000000000116e-01 -8.915990000000000304e-01 9.791640000000000343e-01 -1.179205999999999976e+00 9.769100000000000006e-02 1.614163000000000014e+00 -5.413200000000000234e-01 -1.043129999999999891e+00 1.284078000000000053e+00 -1.019673000000000052e+00 2.132310000000000039e-01 1.293217000000000061e+00 -5.057000000000000384e-01 1.043015999999999943e+00 -3.248999999999999805e-02 9.277999999999999581e-01 -3.194279999999999897e-01 5.275980000000000114e-01 -2.711219999999999741e-01 -3.346509999999999874e+00 1.001081000000000110e+00 -4.480199999999999738e-01 -1.889088000000000100e+00 1.178382000000000041e+00 -1.868891999999999998e+00 1.819064999999999932e+00 -1.913383000000000056e+00 -9.148159999999999625e-01 -2.277025000000000077e+00 -1.728977999999999904e+00 3.943710000000000271e-01 1.005662000000000056e+00 -7.187090000000000423e-01 -1.389985999999999944e+00 1.701229999999999964e-01 2.933748000000000022e+00 -2.174481999999999804e+00 2.190640000000000087e-01 5.016360999999999848e+00 3.562596000000000096e+00 1.906463999999999936e+00 1.392895999999999912e+00 2.642183000000000170e+00 9.699769999999999781e-01 1.027066000000000034e+00 6.058480000000000532e-01 -3.676740000000000008e-01 -2.173583999999999961e+00 -1.487624000000000057e+00 1.225999000000000061e+00 1.233473999999999959e+00 -9.464000000000000190e-02 9.459349999999999703e-01 -3.242959999999999732e-01 -2.048020000000000118e-01 -3.083307000000000020e+00 -1.944320999999999966e+00 -3.818239999999999967e-01 -1.068548000000000053e+00 -1.861013999999999946e+00 -1.286524000000000001e+00 6.747480000000000144e-01 -7.678160000000000540e-01 -1.135305000000000009e+00 -2.547550000000000092e-01 1.887404999999999999e+00 2.933879999999999821e-01 -3.593919999999999892e-01 8.423999999999999197e-03 -2.760231999999999797e+00 1.827925999999999940e+00 -1.807449999999999890e-01 -3.684279999999999777e-01 -6.376100000000000101e-01 -1.990199999999999969e+00 -9.652039999999999509e-01 7.503250000000000197e-01 7.241030000000000522e-01 2.412890000000000035e-01 -1.219254999999999978e+00 -8.511440000000000117e-01 1.377196000000000087e+00 4.454560000000000186e-01 -1.402722999999999942e+00 -2.525339999999999918e+00 2.501310000000000144e+00 -1.433923999999999976e+00 -3.555280000000000107e-01 -6.548500000000000154e-02 7.340109999999999690e-01 -1.643648999999999916e+00 -1.931680000000000064e+00 5.249580000000000357e-01 9.428919999999999524e-01 -3.062480000000000202e-01 -1.211249999999999938e+00 1.198714000000000057e+00 1.490183000000000035e+00 -5.154959999999999543e-01 6.273659999999999792e-01 3.643080000000000207e-01 6.457009999999999694e-01 1.768530000000000102e-01 9.492969999999999464e-01 8.760360000000000369e-01 7.924320000000000253e-01 -7.996649999999999592e-01 -3.726639000000000035e+00 -1.658479999999999954e-01 -2.133529999999999927e+00 2.883427999999999880e+00 3.949940000000000118e-01 1.333021999999999929e+00 1.088737000000000066e+00 2.294604999999999784e+00 5.188597999999999821e+00 -2.094755999999999840e+00 1.333100000000000084e-02 2.221849999999999936e-01 -5.744289999999999674e-01 1.614498999999999906e+00 3.850729999999999986e-01 -3.697550999999999810e+00 -5.567210000000000214e-01 1.982078999999999924e+00 1.314283000000000090e+00 9.646649999999999947e-01 -2.898810000000000109e+00 -1.980566000000000049e+00 1.383151000000000019e+00 2.193674000000000124e+00 4.798600000000000088e-01 -1.071434999999999915e+00 -3.136798000000000197e+00 2.499414999999999942e+00 4.759849999999999914e-01 -7.128689999999999749e-01 -1.263252999999999959e+00 4.221909999999999830e-01 2.654306000000000054e+00 2.736399999999999944e-02 1.247314000000000034e+00 3.760740000000000194e-01 -1.443327999999999944e+00 9.374899999999999900e-02 2.267311999999999994e+00
-3.137268999999999863e+00 3.398689999999999767e-01 5.383069999999999800e-01 2.897403000000000173e+00 1.929157000000000011e+00 -1.197715000000000085e+00 -1.491886999999999963e+00 -1.855518999999999918e+00 -3.417759999999999909e+00 -3.394760000000000000e-01 1.568631000000000109e+00 -1.127269999999999994e+00 -3.152260000000000062e+00 -5.658889999999999754e-01 3.969999999999999918e-02 2.025996999999999826e+00 -1.110168000000000044e+00 1.348001999999999923e+00 -5.766860000000000319e-01 7.469399999999999651e-02 9.086210000000000120e-01 -3.293343999999999827e+00 -1.950285000000000046e+00 -4.403546000000000404e+00 3.086119999999999974e-01 1.861169000000000073e+00 -1.320896000000000070e+00 -5.528619999999999646e-01 -6.886999999999999893e-03 -3.193404000000000131e+00 2.105761999999999912e+00 3.196809999999999929e-01 1.562219000000000024e+00 2.236829999999999874e+00 -1.526774999999999993e+00 -1.781182999999999961e+00 -4.853140000000000231e-01 -2.941190000000000193e-01 7.534440000000000026e-01 -1.129763000000000073e+00 -1.217908999999999908e+00 3.063391000000000197e+00 7.418299999999999894e-01 8.245470000000000299e-01 -5.192900000000000293e-02 -2.376240000000000019e-01 -4.093100000000000210e-02 -1.564446000000000003e+00 -2.421880999999999950e+00 -1.515900999999999943e+00 -2.381367000000000012e+00 -2.070490000000000108e-01 1.996272000000000046e+00 2.820195000000000007e+00 1.478806999999999983e+00 -4.581029999999999824e-01 1.134889999999999954e+00 1.460469999999999935e+00 1.234129999999999949e-01 -1.678827000000000069e+00 2.831382000000000065e+00 -4.667129999999999890e-01 4.166480000000000183e-01 2.281159000000000159e+00 -7.094089999999999563e-01 -4.912270000000000247e-01 9.509130000000000082e-01 -5.827689999999999815e-01 8.417940000000000422e-01 3.406966000000000161e+00 -6.567669999999999897e-01 -9.444850000000000190e-01 2.874455000000000204e+00 -1.541873999999999967e+00 2.335247999999999990e+00 -8.173700000000000410e-01 -1.261775000000000091e+00 3.403674000000000088e+00 9.532110000000000305e-01 4.288560000000000150e-01 3.258628999999999998e+00 6.046040000000000303e-01 1.745770999999999962e+00 -8.042199999999999349e-02 -2.675311999999999912e+00 2.572409999999999974e-01 4.791230000000000211e-01 3.401219999999999799e-01 1.491662999999999961e+00 -5.698550000000000004e-01 -3.357397000000000187e+00 9.594300000000000050e-02 1.146676000000000029e+00 -1.793239999999999945e+00 -1.192404000000000019e+00 1.785380000000000023e-01 -2.219721999999999973e+00 3.069345000000000212e+00 -1.288110000000000088e-01 2.402015000000000011e+00 6.991720000000000157e-01 1.877630000000000132e-01 -7.352130000000000054e-01 -1.994472000000000023e+00 1.079153000000000029e+00 1.863650000000000029e+00 2.336732000000000031e+00 1.277906999999999904e+00 -1.661710000000000131e-01 2.925701000000000107e+00 2.788742000000000054e+00 -1.054540000000000061e-01 -6.257989999999999942e-01 -3.032486000000000015e+00 -1.736102999999999952e+00 1.933229999999999948e-01 -1.146891000000000105e+00 4.196090000000000098e-01 -1.596149999999999958e+00 -3.805589999999999806e-01 3.353997000000000117e+00 -3.060899999999999732e-01 -1.049449999999999994e+00 1.159931000000000045e+00 -1.469246999999999970e+00 2.493680000000000063e-01 -6.334370000000000278e-01 -1.484936999999999951e+00 -1.333622000000000085e+00 -8.337020000000000541e-01 -7.539999999999999827e-03 -1.147637000000000018e+00 -5.423000000000000043e-01 -8.265919999999999934e-01 -1.141520000000000090e+00 -8.608019999999999561e-01 -1.635161000000000087e+00 -4.422590000000000132e-01 4.511820000000000275e-01 -2.353879999999999861e-01 1.308057999999999943e+00 -2.168107000000000006e+00 5.324577999999999811e+00 1.898489999999999900e-01 3.958899999999999919e-02 8.471579999999999666e-01 -1.073117000000000099e+00 2.317400000000000126e+00 -1.242399999999999949e+00 1.728445000000000009e+00 -2.051099999999999868e-01 -2.365264999999999951e+00 2.035915999999999837e+00 -6.203539999999999610e-01 -2.185294999999999987e+00 -1.640808000000000044e+00 -5.634100000000000219e-02 -1.236796999999999924e+00 -2.462321999999999900e+00 -6.772869999999999724e-01 1.918140000000000123e-01 2.670293000000000028e+00 -7.863199999999999357e-02 1.703997999999999902e+00 -1.038726999999999956e+00 -1.251972000000000085e+00 -1.410767000000000104e+00 -1.745260000000000034e+00 9.092780000000000307e-01 -1.227473000000000036e+00 1.973114999999999952e+00 3.219036000000000008e+00 2.673786999999999914e+00 -2.193064999999999820e+00 5.298200000000000132e-02 5.612840000000000051e-01 -4.124800000000000133e-01 -2.579222999999999821e+00 -1.017711000000000032e+00 1.873985000000000012e+00 2.805458999999999925e+00 1.727299999999999947e-01 1.800640000000000018e-01 1.088570000000000038e+00 -5.951079999999999703e-01 -7.483279999999999932e-01 -4.130049999999999777e+00 8.258199999999999985e-01 1.384665000000000035e+00 -9.503779999999999450e-01 1.866724000000000050e+00 -1.711127999999999982e+00 -1.937392000000000003e+00 3.419849999999999834e-01 1.845277999999999974e+00 -1.139500000000000061e-02 1.066089999999999954e-01 2.368252000000000024e+00 -2.072941000000000145e+00 -9.654430000000000511e-01 -1.315369999999999928e+00 4.009190000000000254e-01 1.255346999999999991e+00 3.843969999999999887e-01 1.005063999999999957e+00 1.013395000000000046e+00 2.234999999999999834e-02 -1.633439000000000085e+00 -3.182409999999999961e-01 -4.897880000000000011e-01 -2.475379999999999914e+00 -3.412017000000000078e+00 -3.063369999999999926e+00 1.064187999999999912e+00 8.510600000000000109e-02 -9.637120000000000131e-01 2.151695999999999831e+00 -6.239200000000000301e-02 2.118198000000000025e+00 -1.485084999999999988e+00 2.218134000000000050e+00 7.446690000000000254e-01 -1.501759999999999984e+00 1.385599999999999943e+00 2.759010000000000074e-01 3.869899999999999896e+00 1.513212000000000002e+00 1.115391000000000021e+00 -8.403310000000000501e-01 6.602130000000000498e-01 -1.877520000000000022e-01 -1.895124999999999948e+00 8.966999999999999971e-02 -2.486209999999999809e+00 -3.423896000000000051e+00 -1.714822000000000068e+00 3.041980000000000239e-01 -1.293550999999999895e+00 -2.552409999999999957e-01 -6.780700000000000616e-02 -7.613349999999999840e-01 -1.570759999999999934e+00 -4.842509999999999870e-01 1.156585999999999892e+00 -2.414009000000000071e+00 1.496961999999999904e+00 -6.073399999999999910e-01 1.039840000000000098e+00 -1.334651000000000032e+00 7.872390000000000221e-01 -1.854519000000000029e+00 -2.278735000000000177e+00 -9.841659999999999853e-01 -3.741200000000000081e-02 2.235897000000000023e+00 9.465609999999999857e-01 3.437379999999999880e-01 1.059809999999999919e+00 2.944157999999999831e+00 2.758602999999999916e+00 4.847306999999999810e+00 -1.587545999999999902e+00 3.739379999999999926e-01 -1.869877999999999929e+00 2.948533999999999988e+00 -3.847280000000000144e-01 7.924320000000000253e-01 3.361060000000000159e+00 -2.351264000000000021e+00 -4.317480000000000206e-01 -1.190093999999999985e+00 1.826244999999999896e+00 3.890467000000000120e+00 1.024475000000000025e+00 1.722782999999999953e+00 -1.181357999999999908e+00 1.543080000000000007e-01 -6.843479999999999563e-01 -1.131353999999999971e+00 -2.567980000000000262e-01 1.336489000000000038e+00 -7.233469999999999622e-01 7.807570000000000343e-01 -7.839699999999999447e-02 -1.615798000000000068e+00