1.024646580199999946e+01 0.000000000000000000e+00 0.000000000000000000e+00 3.597925300000000270e-02 1.069899215799999936e+01 0.000000000000000000e+00 -4.519732499999999653e-02 -4.916394000000000319e-02 1.025753971399999998e+01
1.035966701699999959e+01 0.000000000000000000e+00 0.000000000000000000e+00 3.637674600000000147e-02 1.081719280699999963e+01 0.000000000000000000e+00 -4.569665700000000164e-02 -4.970709499999999975e-02 1.037086327199999936e+01
1.035995421400000005e+01 0.000000000000000000e+00 0.000000000000000000e+00 3.637775399999999826e-02 1.081749268799999975e+01 0.000000000000000000e+00 -4.569792400000000088e-02 -4.970847300000000302e-02 1.037115078000000068e+01
1.030178969700000025e+01 0.000000000000000000e+00 0.000000000000000000e+00 3.617351700000000225e-02 1.075675938400000042e+01 0.000000000000000000e+00 -4.544136000000000009e-02 -4.942939200000000255e-02 1.031292340000000074e+01
1.040299587500000023e+01 0.000000000000000000e+00 0.000000000000000000e+00 3.652889000000000136e-02 1.086243524700000052e+01 0.000000000000000000e+00 -4.588778200000000196e-02 -4.991499299999999778e-02 1.041423895800000032e+01
1.014046278000000001e+01 0.000000000000000000e+00 0.000000000000000000e+00 3.560703600000000163e-02 1.058830760300000051e+01 0.000000000000000000e+00 -4.472974400000000184e-02 -4.865532300000000032e-02 1.015142212800000010e+01
1.033268945400000050e+01 0.000000000000000000e+00 0.000000000000000000e+00 3.628201699999999974e-02 1.078902380399999927e+01 0.000000000000000000e+00 -4.557765899999999953e-02 -4.957765299999999931e-02 1.034385655300000018e+01
1.040958132899999988e+01 0.000000000000000000e+00 0.000000000000000000e+00 3.655201400000000073e-02 1.086931154200000016e+01 0.000000000000000000e+00 -4.591682999999999876e-02 -4.994659099999999852e-02 1.042083152900000087e+01
1.011137670499999963e+01 0.000000000000000000e+00 0.000000000000000000e+00 3.550490399999999686e-02 1.055793696699999984e+01 0.000000000000000000e+00 -4.460144500000000345e-02 -4.851576400000000289e-02 1.012230461899999945e+01
1.014178726699999977e+01 0.000000000000000000e+00 0.000000000000000000e+00 3.561168700000000298e-02 1.058969058499999960e+01 0.000000000000000000e+00 -4.473558600000000079e-02 -4.866167799999999988e-02 1.015274804699999933e+01
1.037091722899999979e+01 0.000000000000000000e+00 0.000000000000000000e+00 3.641624999999999723e-02 1.082893987499999966e+01 0.000000000000000000e+00 -4.574628199999999922e-02 -4.976107500000000183e-02 1.038212564300000018e+01
1.016365655599999940e+01 0.000000000000000000e+00 0.000000000000000000e+00 3.568847800000000264e-02 1.061252571300000014e+01 0.000000000000000000e+00 -4.483205199999999724e-02 -4.876661000000000190e-02 1.017464097200000062e+01
1.010219393300000057e+01 0.000000000000000000e+00 0.000000000000000000e+00 3.547266000000000308e-02 1.054834864600000088e+01 0.000000000000000000e+00 -4.456093900000000080e-02 -4.847170399999999740e-02 1.011311192299999995e+01
1.040570707200000022e+01 0.000000000000000000e+00 0.000000000000000000e+00 3.653841000000000033e-02 1.086526618199999916e+01 0.000000000000000000e+00 -4.589974100000000085e-02 -4.992800099999999963e-02 1.041695308499999939e+01
1.034970063099999926e+01 0.000000000000000000e+00 0.000000000000000000e+00 3.634174999999999905e-02 1.080678626399999942e+01 0.000000000000000000e+00 -4.565269599999999955e-02 -4.965927500000000272e-02 1.036088611399999948e+01
1.030556657300000012e+01 0.000000000000000000e+00 0.000000000000000000e+00 3.618677900000000225e-02 1.076070306299999935e+01 0.000000000000000000e+00 -4.545801900000000229e-02 -4.944751399999999797e-02 1.031670435800000085e+01
1.031487452200000021e+01 0.000000000000000000e+00 0.000000000000000000e+00 3.621946200000000088e-02 1.077042209000000028e+01 0.000000000000000000e+00 -4.549907699999999888e-02 -4.949217399999999989e-02 1.032602236700000020e+01
1.032803446199999975e+01 0.000000000000000000e+00 0.000000000000000000e+00 3.626567199999999880e-02 1.078416322800000060e+01 0.000000000000000000e+00 -4.555712600000000334e-02 -4.955531800000000098e-02 1.033919653000000061e+01
1.039268439499999985e+01 0.000000000000000000e+00 0.000000000000000000e+00 3.649268299999999798e-02 1.085166836900000042e+01 0.000000000000000000e+00 -4.584229799999999660e-02 -4.986551699999999809e-02 1.040391633299999974e+01
1.035692453000000057e+01 0.000000000000000000e+00 0.000000000000000000e+00 3.636711599999999794e-02 1.081432920099999961e+01 0.000000000000000000e+00 -4.568455999999999906e-02 -4.969393600000000105e-02 1.036811782100000023e+01
1.025945307099999937e+01 0.000000000000000000e+00 0.000000000000000000e+00 3.602485700000000041e-02 1.071255299799999960e+01 0.000000000000000000e+00 -4.525461199999999962e-02 -4.922625499999999654e-02 1.027054101899999949e+01
1.027255943199999955e+01 0.000000000000000000e+00 0.000000000000000000e+00 3.607087800000000066e-02 1.072623819100000020e+01 0.000000000000000000e+00 -4.531242399999999698e-02 -4.928914100000000159e-02 1.028366154499999929e+01
1.024668330000000083e+01 0.000000000000000000e+00 0.000000000000000000e+00 3.598001700000000302e-02 1.069921926099999965e+01 0.000000000000000000e+00 -4.519828399999999829e-02 -4.916498400000000185e-02 1.025775744699999947e+01
1.013370413900000067e+01 0.000000000000000000e+00 0.000000000000000000e+00 3.558330400000000310e-02 1.058125047200000068e+01 0.000000000000000000e+00 -4.469993199999999778e-02 -4.862289399999999984e-02 1.014465618300000038e+01
1.022975686600000067e+01 0.000000000000000000e+00 0.000000000000000000e+00 3.592058199999999951e-02 1.068154528600000042e+01 0.000000000000000000e+00 -4.512362200000000212e-02 -4.908376799999999984e-02 1.024081271999999920e+01
1.034965583299999992e+01 0.000000000000000000e+00 0.000000000000000000e+00 3.634159299999999843e-02 1.080673948799999984e+01 0.000000000000000000e+00 -4.565249799999999969e-02 -4.965905999999999793e-02 1.036084126799999972e+01
1.032397088099999927e+01 0.000000000000000000e+00 0.000000000000000000e+00 3.625140300000000149e-02 1.077992018199999968e+01 0.000000000000000000e+00 -4.553920100000000137e-02 -4.953582000000000124e-02 1.033512855700000088e+01
1.042665270700000058e+01 0.000000000000000000e+00 0.000000000000000000e+00 3.661195800000000000e-02 1.088713686300000028e+01 0.000000000000000000e+00 -4.599213199999999807e-02 -5.002850100000000300e-02 1.043792135700000046e+01
1.008777685899999987e+01 0.000000000000000000e+00 0.000000000000000000e+00 3.542203599999999702e-02 1.053329485399999932e+01 0.000000000000000000e+00 -4.449734600000000012e-02 -4.840252899999999969e-02 1.009867926699999963e+01
1.014333914400000047e+01 0.000000000000000000e+00 0.000000000000000000e+00 3.561713600000000063e-02 1.059131099899999917e+01 0.000000000000000000e+00 -4.474243199999999865e-02 -4.866912400000000111e-02 1.015430160100000023e+01
1.001482762000000015e+01 0.000000000000000000e+00 0.000000000000000000e+00 3.516588300000000195e-02 1.045712387500000062e+01 0.000000000000000000e+00 -4.417556499999999997e-02 -4.805250800000000072e-02 1.002565118799999944e+01
1.030268060100000049e+01 0.000000000000000000e+00 0.000000000000000000e+00 3.617664500000000033e-02 1.075768963500000019e+01 0.000000000000000000e+00 -4.544528899999999982e-02 -4.943366600000000111e-02 1.031381526700000073e+01
1.023511679799999996e+01 0.000000000000000000e+00 0.000000000000000000e+00 3.593940300000000171e-02 1.068714193399999957e+01 0.000000000000000000e+00 -4.514726399999999945e-02 -4.910948600000000080e-02 1.024617844399999989e+01
1.028951858599999980e+01 0.000000000000000000e+00 0.000000000000000000e+00 3.613042799999999916e-02 1.074394633100000007e+01 0.000000000000000000e+00 -4.538723199999999958e-02 -4.937051299999999782e-02 1.030063902800000086e+01
1.011243495799999970e+01 0.000000000000000000e+00 0.000000000000000000e+00 3.550861999999999769e-02 1.055904195699999981e+01 0.000000000000000000e+00 -4.460611300000000279e-02 -4.852084200000000153e-02 1.012336401600000002e+01
1.025082677500000017e+01 0.000000000000000000e+00 0.000000000000000000e+00 3.599456599999999867e-02 1.070354573000000009e+01 0.000000000000000000e+00 -4.521656100000000233e-02 -4.918486500000000122e-02 1.026190540099999993e+01
1.042736588400000031e+01 0.000000000000000000e+00 0.000000000000000000e+00 3.661446299999999987e-02 1.088788153700000016e+01 0.000000000000000000e+00 -4.599527800000000055e-02 -5.003192299999999898e-02 1.043863530500000003e+01
1.036047421600000007e+01 0.000000000000000000e+00 0.000000000000000000e+00 3.637958000000000164e-02 1.081803565499999920e+01 0.000000000000000000e+00 -4.570021800000000078e-02 -4.971096800000000121e-02 1.037167134299999915e+01
1.011992933600000022e+01 0.000000000000000000e+00 0.000000000000000000e+00 3.553493499999999666e-02 1.056686731799999990e+01 0.000000000000000000e+00 -4.463917099999999832e-02 -4.855680099999999666e-02 1.013086649399999928e+01
1.031460818999999951e+01 0.000000000000000000e+00 0.000000000000000000e+00 3.621852700000000036e-02 1.077014399499999975e+01 0.000000000000000000e+00 -4.549790199999999979e-02 -4.949089699999999897e-02 1.032575574700000054e+01
1.027836029600000067e+01 0.000000000000000000e+00 0.000000000000000000e+00 3.609124699999999991e-02 1.073229524499999954e+01 0.000000000000000000e+00 -4.533801199999999698e-02 -4.931697399999999953e-02 1.028946867800000042e+01
1.013973106899999976e+01 0.000000000000000000e+00 0.000000000000000000e+00 3.560446700000000075e-02 1.058754357699999993e+01 0.000000000000000000e+00 -4.472651600000000088e-02 -4.865181200000000261e-02 1.015068962700000021e+01
1.022636957799999990e+01 0.000000000000000000e+00 0.000000000000000000e+00 3.590868800000000111e-02 1.067800840199999968e+01 0.000000000000000000e+00 -4.510867999999999822e-02 -4.906751599999999852e-02 1.023742177099999928e+01
1.028994074100000056e+01 0.000000000000000000e+00 0.000000000000000000e+00 3.613191000000000319e-02 1.074438712999999979e+01 0.000000000000000000e+00 -4.538909399999999789e-02 -4.937253900000000001e-02 1.030106163900000027e+01
1.003103529800000082e+01 0.000000000000000000e+00 0.000000000000000000e+00 3.522279500000000119e-02 1.047404735099999940e+01 0.000000000000000000e+00 -4.424705799999999883e-02 -4.813027500000000014e-02 1.004187638299999996e+01
1.028438349299999999e+01 0.000000000000000000e+00 0.000000000000000000e+00 3.611239699999999747e-02 1.073858445099999948e+01 0.000000000000000000e+00 -4.536458100000000104e-02 -4.934587399999999791e-02 1.029549838500000014e+01
1.025977808400000058e+01 0.000000000000000000e+00 0.000000000000000000e+00 3.602599799999999658e-02 1.071289236600000017e+01 0.000000000000000000e+00 -4.525604600000000116e-02 -4.922781400000000168e-02 1.027086638399999963e+01
1.034875158300000031e+01 0.000000000000000000e+00 0.000000000000000000e+00 3.633841799999999733e-02 1.080579530199999994e+01 0.000000000000000000e+00 -4.564850899999999684e-02 -4.965472099999999889e-02 1.035993604099999921e+01
1.012907184800000060e+01 0.000000000000000000e+00 0.000000000000000000e+00 3.556703800000000221e-02 1.057641360100000050e+01 0.000000000000000000e+00 -4.467949799999999805e-02 -4.860066799999999965e-02 1.014001888600000001e+01
1.008741420399999988e+01 0.000000000000000000e+00 0.000000000000000000e+00 3.542076200000000147e-02 1.053291618199999924e+01 0.000000000000000000e+00 -4.449574600000000268e-02 -4.840078899999999962e-02 1.009831621999999918e+01
