1.774300000000000044e-01 2.883809999999999985e+00 2.121290000000000120e+00 1.020304999999999929e+01 2.708099999999999952e+00 7.582889999999999908e+00 1.333900000000000086e-01 8.125669999999999504e+00 2.859280000000000044e+00 2.525000000000000161e-02 7.748520000000000074e+00 7.630370000000000097e+00 5.182450000000000223e+00 2.473669999999999813e+00 2.196860000000000035e+00 4.696749999999999758e+00 2.968589999999999840e+00 7.573120000000000296e+00 4.925779999999999603e+00 7.595970000000000333e+00 2.484459999999999891e+00 5.130399999999999849e+00 7.881509999999999572e+00 7.633009999999999629e+00 2.603289999999999882e+00 5.116679999999999673e+00 2.636089999999999822e+00 2.356320000000000192e+00 5.305690000000000239e+00 7.537919999999999732e+00 3.000070000000000014e+00 1.052848999999999968e+01 2.588130000000000042e+00 2.690869999999999873e+00 1.046929000000000087e+01 7.763700000000000045e+00 7.570070000000000299e+00 5.243100000000000094e+00 2.425209999999999866e+00 7.724590000000000067e+00 5.402809999999999668e+00 7.322969999999999757e+00 7.903539999999999566e+00 1.052698999999999963e+01 2.467319999999999958e+00 7.734939999999999927e+00 3.099999999999999999e-04 7.613150000000000084e+00 2.589049999999999851e+00 2.099450000000000038e+00 4.765320000000000000e+00 2.713760000000000172e+00 2.382190000000000030e+00 9.968370000000000175e+00 2.743949999999999889e+00 7.816620000000000346e+00 5.205680000000000085e+00 2.711840000000000028e+00 7.977050000000000196e+00 2.865099999999999869e-01 7.849820000000000242e+00 2.180019999999999847e+00 4.801470000000000127e+00 7.531839999999999868e+00 2.231689999999999952e+00 1.020473999999999926e+01 7.942599999999999660e+00 7.940030000000000143e+00 5.011459999999999582e+00 7.632530000000000037e+00 7.647949999999999804e+00 1.729300000000000004e-01 1.006526999999999994e+01 4.977920000000000122e+00 4.650439999999999685e+00 1.011865000000000059e+01 5.158789999999999765e+00 1.004055999999999926e+01 9.608999999999999486e-02 1.042589000000000077e+01 5.209760000000000169e+00 3.596699999999999897e-01 1.043229000000000006e+01 2.727800000000000225e-01 4.957360000000000433e+00 4.884439999999999671e+00 4.901849999999999596e+00 5.089220000000000077e+00 4.950990000000000002e+00 1.013743999999999978e+01 5.326430000000000220e+00 5.788999999999999702e-02 5.213059999999999583e+00 5.402260000000000062e+00 1.009198999999999913e+01 1.010064000000000028e+01 3.976910000000000167e+00 3.840430000000000010e+00 3.310099999999999820e+00 3.772559999999999913e+00 4.243590000000000195e+00 8.769310000000000827e+00 4.384649999999999714e+00 9.451129999999999143e+00 3.852899999999999991e+00 3.835589999999999833e+00 9.500439999999999330e+00 9.276980000000000004e+00 9.148490000000000677e+00 3.975049999999999972e+00 3.343080000000000052e+00 8.960889999999999134e+00 3.462810000000000166e+00 6.024110000000000298e+00 9.032669999999999533e+00 8.923019999999999285e+00 6.475660000000000416e+00 9.245969999999999800e+00 6.742340000000000444e+00 8.910859999999999559e+00 4.119139999999999802e+00 3.485669999999999824e+00 8.052700000000000413e-01 3.666640000000000121e+00 9.585399999999999476e-01 6.109469999999999956e+00 6.311910000000000132e+00 6.497080000000000410e+00 1.066149999999999931e+00 4.007880000000000109e+00 6.330860000000000376e+00 6.190949999999999953e+00 8.983330000000000481e+00 9.425099999999999589e-01 1.004250000000000087e+00 8.792260000000000630e+00 9.705599999999999783e-01 6.187490000000000379e+00 8.893179999999999197e+00 8.733620000000000161e+00 1.639809999999999990e+00 9.097459999999999880e+00 6.478609999999999758e+00 6.170130000000000337e+00 4.179219999999999935e+00 1.407059999999999977e+00 3.728650000000000020e+00 3.692779999999999951e+00 1.401089999999999947e+00 8.673970000000000624e+00 3.636620000000000186e+00 6.370969999999999800e+00 3.786080000000000112e+00 4.107350000000000279e+00 6.787119999999999820e+00 9.016500000000000625e+00 9.089259999999999451e+00 1.300259999999999971e+00 3.477489999999999970e+00 8.753940000000000055e+00 1.653499999999999970e+00 8.587550000000000239e+00 8.781150000000000233e+00 6.458709999999999951e+00 3.825730000000000075e+00 9.145049999999999457e+00 4.273900000000000254e+00 8.458550000000000679e+00 1.245379999999999932e+00 4.201200000000000045e+00 1.071579999999999977e+00 3.567530000000000090e+00 3.752949999999999786e+00 6.093029999999999724e+00 3.920739999999999892e+00 8.233099999999999863e-01 1.160830000000000028e+00 3.683230000000000004e+00 8.946109999999999118e+00 6.593250000000000277e+00 1.675550000000000095e+00 6.433600000000000430e-01 4.058830000000000382e+00 1.639250000000000096e+00 7.589900000000000535e-01 9.301959999999999340e+00 1.109990000000000032e+00 6.487449999999999939e+00 4.115249999999999631e+00 1.271549999999999958e+00 6.222579999999999778e+00 8.988739999999999952e+00 6.666319999999999801e+00 5.541000000000000369e-01 3.979999999999999982e+00 6.341090000000000337e+00 8.352899999999999769e-01 9.128750000000000142e+00 5.967909999999999826e+00 5.907189999999999941e+00 3.266469999999999985e+00 6.673569999999999780e+00 6.133239999999999803e+00 8.926000000000000156e+00 9.039970000000000283e+00 3.504760000000000097e+00 7.592600000000000460e-01 7.936600000000000321e-01 4.679229999999999556e+00 6.472520000000000273e+00 1.692390000000000061e+00 9.442529999999999646e+00 1.365310000000000024e+00 8.956699999999999662e-01 9.770609999999999573e+00 6.708510000000000417e+00 6.503320000000000434e+00 3.696470000000000145e+00 1.164530000000000065e+00 6.267479999999999940e+00 4.326670000000000016e+00 6.252229999999999954e+00 3.679930000000000145e+00 5.839109999999999800e+00 1.000769999999999937e+00 6.312369999999999592e+00 9.591519999999999158e+00 6.398509999999999920e+00 1.434870000000000090e+00 3.596150000000000180e+00 3.688359999999999861e+00 1.388290000000000024e+00 3.421899999999999942e+00 8.720909999999999940e+00 1.628009999999999957e+00 8.971349999999999270e+00 3.945570000000000022e+00 1.291909999999999892e+00 8.718070000000000874e+00 9.207910000000000039e+00 6.432210000000000427e+00 3.322540000000000049e+00 3.886019999999999808e+00 6.087200000000000166e+00 3.269249999999999989e+00 9.026080000000000325e+00 6.661380000000000301e+00 8.282579999999999387e+00 3.151279999999999859e+00 6.512059999999999960e+00 8.883380000000000720e+00 9.028299999999999770e+00 1.575690000000000035e+00 1.385099999999999998e+00 1.481829999999999981e+00 1.112179999999999946e+00 1.757870000000000044e+00 6.485159999999999592e+00 1.375420000000000087e+00 6.867779999999999774e+00 1.655810000000000004e+00 1.819749999999999979e+00 7.306219999999999715e+00 6.794999999999999929e+00 6.639240000000000030e+00 1.089650000000000007e+00 1.560820000000000096e+00 6.432349999999999568e+00 1.348799999999999999e+00 6.363610000000000433e+00 8.709080000000000155e+00 6.099960000000000271e+00 8.646599999999999842e-01 6.636300000000000310e+00 6.995020000000000238e+00 6.617370000000000196e+00
1.002267999999999937e+01 2.694380000000000219e+00 2.442200000000000149e+00 1.023525000000000063e+01 2.222030000000000172e+00 7.496990000000000265e+00 1.022865000000000002e+01 7.813959999999999795e+00 2.939070000000000071e+00 3.129100000000000215e-01 7.444790000000000241e+00 7.647560000000000358e+00 5.245250000000000412e+00 2.501269999999999882e+00 2.317940000000000111e+00 5.106469999999999843e+00 2.933629999999999960e+00 7.849610000000000198e+00 5.310159999999999769e+00 8.020229999999999748e+00 2.649469999999999992e+00 5.357599999999999696e+00 8.014160000000000394e+00 7.838149999999999729e+00 2.796149999999999913e+00 5.202670000000000350e+00 2.571400000000000130e+00 3.038260000000000183e+00 5.565929999999999822e+00 7.688220000000000276e+00 2.667590000000000128e+00 1.064239000000000068e+01 2.374340000000000117e+00 2.374229999999999841e+00 2.204000000000000056e-02 7.858749999999999680e+00 8.113989999999999370e+00 5.471639999999999837e+00 2.533170000000000144e+00 8.052239999999999398e+00 5.480949999999999989e+00 7.920219999999999594e+00 7.797180000000000000e+00 3.309000000000000136e-02 2.536919999999999842e+00 7.599660000000000082e+00 1.075168999999999997e+01 7.585679999999999978e+00 2.831170000000000186e+00 2.535089999999999844e+00 5.025579999999999714e+00 2.302319999999999922e+00 2.333299999999999930e+00 1.031400000000000006e+01 2.332349999999999923e+00 7.838119999999999976e+00 5.101130000000000386e+00 2.560849999999999849e+00 7.625329999999999941e+00 1.024050000000000082e+01 7.784679999999999822e+00 3.009710000000000107e+00 4.999970000000000248e+00 7.505620000000000402e+00 2.386670000000000069e+00 1.003891999999999918e+01 7.504909999999999748e+00 7.974859999999999616e+00 5.227249999999999730e+00 7.882410000000000139e+00 8.251689999999999969e+00 1.033389999999999986e+01 5.376699999999999813e-01 5.065129999999999910e+00 4.854260000000000019e+00 1.035519000000000034e+01 4.680740000000000123e+00 1.290100000000000136e-01 2.396099999999999897e-01 1.056619000000000064e+01 4.828359999999999985e+00 8.050000000000000211e-02 1.033379000000000048e+01 1.022259999999999991e+01 5.292779999999999596e+00 5.185389999999999944e+00 4.925419999999999909e+00 5.507319999999999993e+00 5.219590000000000174e+00 1.624000000000000096e-02 4.917889999999999873e+00 1.076280000000000037e+01 5.207469999999999821e+00 5.318710000000000271e+00 1.060777999999999999e+01 1.035540999999999912e+01 3.948440000000000172e+00 3.934330000000000105e+00 3.839980000000000171e+00 6.285849999999999937e+00 4.512389999999999901e+00 8.708869999999999223e+00 3.811519999999999797e+00 9.248900000000000787e+00 1.391150000000000109e+00 3.902249999999999996e+00 1.002993000000000023e+01 9.126749999999999474e+00 9.381449999999999179e+00 3.895059999999999967e+00 3.800089999999999968e+00 1.050839999999999996e+00 3.430309999999999970e+00 9.330170000000000741e+00 9.165979999999999350e+00 9.098729999999999762e+00 4.130670000000000286e+00 9.171599999999999753e+00 9.082420000000000826e+00 8.943910000000000693e+00 4.027910000000000323e+00 8.994900000000000118e-01 1.300179999999999891e+00 3.496420000000000083e+00 1.006909999999999972e+00 6.660070000000000157e+00 4.175279999999999880e+00 6.368380000000000152e+00 9.283700000000000285e-01 4.181689999999999685e+00 6.279799999999999827e+00 6.202790000000000248e+00 8.843180000000000263e+00 9.502530000000000143e+00 1.422779999999999934e+00 8.688319999999999155e+00 1.628689999999999971e+00 6.067289999999999850e+00 8.648199999999999221e+00 7.215489999999999959e+00 1.699929999999999941e+00 8.300969999999999516e+00 4.378219999999999779e+00 6.448470000000000368e+00 4.633530000000000371e+00 1.719980000000000064e+00 4.239130000000000287e+00 3.356780000000000097e+00 1.795600000000000085e+00 8.906929999999999126e+00 3.915639999999999787e+00 6.567580000000000418e+00 3.521609999999999907e+00 3.620880000000000098e+00 7.090239999999999654e+00 8.695159999999999556e+00 9.828640000000000043e+00 9.433200000000000474e-01 3.460999999999999854e+00 8.908609999999999474e+00 1.290999999999999925e+00 8.995089999999999364e+00 9.041639999999999233e+00 6.585539999999999949e+00 3.939290000000000180e+00 9.468819999999999126e+00 6.225909999999999833e+00 9.278050000000000352e+00 3.393130000000000202e+00 3.465959999999999930e+00 1.350850000000000106e+00 3.368770000000000042e+00 3.650900000000000034e+00 6.693069999999999631e+00 1.325649999999999995e+00 8.829029999999999490e+00 9.572060000000000457e+00 3.310859999999999914e+00 8.866759999999999309e+00 6.892789999999999750e+00 2.102079999999999949e+00 7.483100000000000307e-01 4.257950000000000124e+00 1.133639999999999981e+00 8.921099999999999586e-01 9.143359999999999488e+00 1.180620000000000003e+00 6.450129999999999697e+00 3.575439999999999952e+00 1.580209999999999892e+00 6.184960000000000235e+00 8.814420000000000144e+00 6.912049999999999805e+00 1.510880000000000001e+00 3.920519999999999783e+00 5.755530000000000257e+00 2.035969999999999835e+00 9.399499999999999744e+00 6.601950000000000429e+00 6.823760000000000048e+00 4.052349999999999675e+00 6.444230000000000125e+00 7.258350000000000080e+00 9.297470000000000567e+00 8.657030000000000669e+00 1.424479999999999968e+00 1.256580000000000030e+00 7.154199999999999449e-01 3.417100000000000026e+00 6.003569999999999851e+00 1.293749999999999956e+00 6.005110000000000170e+00 1.180530000000000079e+00 3.717540000000000067e+00 9.420400000000000773e+00 4.174619999999999997e+00 6.144750000000000156e+00 3.924199999999999910e+00 1.302570000000000006e+00 5.765830000000000233e+00 3.881920000000000037e+00 6.228110000000000035e+00 6.314680000000000071e+00 9.384059999999999846e+00 1.363240000000000007e+00 6.479479999999999684e+00 9.291339999999999932e+00 6.688880000000000159e+00 1.444709999999999939e+00 3.679030000000000022e+00 3.427550000000000097e+00 4.109460000000000335e+00 4.159440000000000026e+00 9.044040000000000745e+00 1.247300000000000075e+00 8.956979999999999720e+00 3.634220000000000006e+00 9.945800000000000196e-01 8.935829999999999274e+00 5.951839999999999797e+00 6.528559999999999697e+00 4.239300000000000068e+00 3.724120000000000097e+00 8.741339999999999222e+00 3.748699999999999921e+00 9.214280000000000470e+00 6.274680000000000035e+00 9.481009999999999494e+00 4.108670000000000044e+00 6.896840000000000082e+00 9.796469999999999345e+00 9.357530000000000570e+00 1.059350000000000014e+00 6.426199999999999690e-01 1.466830000000000078e+00 8.485599999999999810e-01 8.957399999999999807e-01 6.735730000000000217e+00 8.663909999999999556e+00 3.819490000000000052e+00 1.366170000000000107e+00 1.381129999999999969e+00 6.473869999999999791e+00 6.241259999999999586e+00 6.399670000000000414e+00 8.795500000000000540e-01 1.254979999999999984e+00 6.096650000000000347e+00 8.079899999999999860e-01 6.955989999999999895e+00 6.128470000000000084e+00 6.449010000000000353e+00 1.493370000000000086e+00 6.849879999999999747e+00 6.682179999999999787e+00 6.806110000000000326e+00
3.839899999999999980e-01 2.500210000000000043e+00 2.781880000000000130e+00 1.025319000000000003e+01 2.782830000000000137e+00 7.584130000000000038e+00 6.090000000000000274e-02 7.858039999999999914e+00 2.502060000000000173e+00 1.007565999999999917e+01 8.178919999999999746e+00 7.451179999999999914e+00 5.350439999999999863e+00 2.710020000000000095e+00 2.687380000000000102e+00 5.189530000000000420e+00 2.750599999999999934e+00 7.694950000000000401e+00 5.206030000000000157e+00 8.038940000000000197e+00 2.433450000000000113e+00 5.174559999999999604e+00 8.132239999999999469e+00 7.561519999999999797e+00 2.821940000000000115e+00 5.129769999999999719e+00 2.530959999999999877e+00 2.811620000000000008e+00 5.319659999999999833e+00 7.793739999999999668e+00 2.379910000000000192e+00 1.057443999999999917e+01 2.291539999999999910e+00 2.620429999999999815e+00 1.067844000000000015e+01 7.671560000000000379e+00 7.972889999999999588e+00 5.218009999999999593e+00 2.575569999999999915e+00 8.002399999999999736e+00 5.399149999999999672e+00 7.796310000000000073e+00 7.726580000000000226e+00 1.045054000000000016e+01 2.780759999999999899e+00 7.903810000000000002e+00 3.515999999999999681e-02 7.716980000000000395e+00 2.681029999999999802e+00 2.475729999999999986e+00 5.001240000000000130e+00 2.532770000000000188e+00 2.411779999999999813e+00 1.019064000000000014e+01 2.878080000000000194e+00 7.859219999999999651e+00 4.803779999999999717e+00 2.483810000000000073e+00 7.567079999999999806e+00 1.026984000000000030e+01 7.974149999999999849e+00 2.177560000000000162e+00 5.045420000000000016e+00 7.779209999999999958e+00 2.428879999999999928e+00 1.022334000000000032e+01 7.866060000000000052e+00 7.868470000000000297e+00 4.852540000000000298e+00 7.674319999999999808e+00 7.645609999999999573e+00 2.148999999999999869e-02 3.291999999999999788e-02 5.289340000000000153e+00 4.981679999999999886e+00 1.490799999999999903e-01 4.780319999999999681e+00 8.916000000000000314e-02 1.056200000000000055e-01 1.067793999999999954e+01 5.146390000000000242e+00 1.031089000000000055e+01 1.066314000000000028e+01 1.004693999999999932e+01 5.419780000000000264e+00 5.428849999999999731e+00 5.361690000000000289e+00 5.358419999999999739e+00 5.046140000000000292e+00 1.031614000000000075e+01 5.259319999999999773e+00 1.039994000000000085e+01 5.191349999999999909e+00 5.222940000000000360e+00 4.685999999999999888e-02 1.014813999999999972e+01 3.949590000000000156e+00 4.190010000000000012e+00 3.888279999999999959e+00 3.569920000000000204e+00 4.036749999999999616e+00 9.015819999999999723e+00 3.740330000000000155e+00 9.431210000000000093e+00 3.805460000000000065e+00 4.185670000000000002e+00 9.633760000000000545e+00 8.885239999999999583e+00 9.011499999999999844e+00 3.742729999999999890e+00 3.580950000000000077e+00 8.876049999999999329e+00 3.865270000000000206e+00 8.647449999999999193e+00 8.147169999999999135e+00 8.464100000000000179e+00 1.999819999999999931e+00 9.369049999999999656e+00 9.597450000000000259e+00 8.481230000000000047e+00 9.225499999999999812e-01 9.593000000000000416e-01 1.361010000000000053e+00 4.125969999999999693e+00 7.257700000000000262e-01 6.518049999999999677e+00 3.818000000000000060e+00 6.484810000000000407e+00 1.451340000000000074e+00 4.124399999999999622e+00 6.396779999999999688e+00 6.585770000000000124e+00 8.829530000000000101e+00 1.077814000000000050e+01 8.721400000000000263e-01 9.286860000000000781e+00 1.163839999999999986e+00 6.377799999999999692e+00 9.006629999999999470e+00 6.067590000000000039e+00 7.195300000000000029e-01 8.804740000000000677e+00 4.463890000000000136e+00 6.105520000000000280e+00 4.016119999999999912e+00 1.427079999999999904e+00 4.099890000000000256e+00 3.923799999999999955e+00 1.413550000000000084e+00 9.105079999999999174e+00 4.365660000000000096e+00 6.941609999999999836e+00 4.012179999999999858e+00 4.228209999999999802e+00 6.766729999999999912e+00 9.147330000000000183e+00 9.271140000000000825e+00 1.147380000000000067e+00 3.539660000000000029e+00 9.296350000000000335e+00 1.490990000000000038e+00 8.862420000000000186e+00 9.181119999999999948e+00 6.681000000000000050e+00 3.835490000000000066e+00 9.069089999999999208e+00 6.883670000000000400e+00 8.687400000000000233e+00 4.082919999999999661e+00 3.584719999999999906e+00 1.343599999999999905e+00 3.827739999999999920e+00 3.769969999999999821e+00 6.579200000000000159e+00 3.408269999999999911e+00 9.051700000000000301e+00 1.426260000000000083e+00 3.643489999999999895e+00 8.950649999999999551e+00 6.385089999999999932e+00 1.423540000000000028e+00 1.197079999999999922e+00 3.963179999999999925e+00 1.490820000000000034e+00 6.398899999999999588e-01 9.126879999999999882e+00 1.605429999999999913e+00 6.528400000000000425e+00 3.769559999999999800e+00 1.317739999999999911e+00 5.794660000000000366e+00 9.230549999999999145e+00 6.485350000000000392e+00 5.829900000000000082e-01 3.964840000000000142e+00 7.029560000000000031e+00 9.285400000000000320e-01 9.190720000000000667e+00 6.696049999999999613e+00 5.869220000000000326e+00 3.805750000000000188e+00 6.587930000000000064e+00 6.000880000000000436e+00 9.154019999999999158e+00 9.323389999999999844e+00 3.194640000000000146e+00 1.022370000000000001e+00 1.461209999999999898e+00 4.503280000000000172e+00 6.454469999999999708e+00 6.946299999999999697e-01 9.000629999999999242e+00 1.025779999999999914e+00 9.230800000000000116e-01 9.634890000000000398e+00 6.661100000000000243e+00 6.539049999999999585e+00 3.919810000000000016e+00 1.591029999999999944e+00 6.146460000000000257e+00 4.479829999999999757e+00 6.965049999999999741e+00 6.127690000000000303e+00 9.721460000000000434e+00 1.204820000000000002e+00 6.459979999999999833e+00 9.249869999999999592e+00 6.515690000000000204e+00 1.339069999999999983e+00 3.749359999999999804e+00 3.867780000000000218e+00 7.497399999999999620e-01 3.387379999999999836e+00 9.200079999999999814e+00 1.085409999999999986e+00 9.137349999999999639e+00 3.968539999999999957e+00 1.812119999999999953e+00 8.769899999999999807e+00 8.886900000000000688e+00 6.336240000000000094e+00 3.175250000000000128e+00 4.468700000000000117e+00 6.105470000000000397e+00 3.500179999999999847e+00 9.347739999999999938e+00 6.200980000000000381e+00 8.751659999999999329e+00 3.955360000000000209e+00 6.455869999999999997e+00 8.715180000000000149e+00 9.010400000000000631e+00 1.509730000000000016e+00 3.869779999999999998e+00 1.155329999999999968e+00 1.548659999999999926e+00 1.650700000000000056e+00 6.860579999999999679e+00 9.332899999999999530e-01 6.430509999999999948e+00 1.426050000000000040e+00 5.813000000000000389e-01 7.008289999999999687e+00 6.051179999999999559e+00 3.979239999999999888e+00 1.016329999999999956e+00 1.471449999999999925e+00 6.709150000000000169e+00 1.315430000000000099e+00 6.476630000000000109e+00 6.193030000000000257e+00 6.830549999999999677e+00 1.133760000000000101e+00 6.852190000000000225e+00 6.739419999999999966e+00 6.303480000000000416e+00
1.021471000000000018e+01 2.221560000000000201e+00 2.837499999999999911e+00 1.025000999999999962e+01 2.476589999999999847e+00 8.149580000000000268e+00 2.401500000000000024e-01 8.282439999999999358e+00 2.115839999999999943e+00 1.018980999999999959e+01 7.938950000000000173e+00 7.255829999999999558e+00 5.398329999999999629e+00 2.509290000000000020e+00 2.638949999999999907e+00 4.980459999999999887e+00 2.715619999999999923e+00 7.667790000000000106e+00 5.193909999999999805e+00 7.302810000000000024e+00 2.073949999999999960e+00 5.363010000000000055e+00 7.388289999999999580e+00 7.468069999999999986e+00 2.439880000000000049e+00 5.614830000000000432e+00 2.470920000000000005e+00 2.733719999999999928e+00 5.450050000000000061e+00 7.612059999999999604e+00 2.583439999999999959e+00 1.043000000000000038e-01 2.494040000000000035e+00 2.488269999999999982e+00 3.388599999999999945e-01 7.752769999999999939e+00 7.819180000000000241e+00 4.910449999999999982e+00 2.615180000000000060e+00 7.777230000000000310e+00 4.731819999999999915e+00 7.906229999999999869e+00 7.570680000000000298e+00 1.023846999999999952e+01 2.626910000000000078e+00 7.251339999999999897e+00 1.026666999999999952e+01 7.578769999999999563e+00 2.906509999999999927e+00 2.785109999999999975e+00 4.961839999999999584e+00 2.523849999999999927e+00 2.631870000000000154e+00 1.023812999999999995e+01 2.366400000000000059e+00 8.293120000000000047e+00 4.881639999999999979e+00 2.740040000000000031e+00 8.148479999999999279e+00 9.630860000000000198e+00 7.752830000000000332e+00 2.120169999999999888e+00 5.513049999999999784e+00 7.868430000000000035e+00 2.429159999999999986e+00 2.132999999999999827e-02 7.638779999999999681e+00 8.164989999999999526e+00 4.924419999999999575e+00 7.483789999999999942e+00 7.834030000000000271e+00 9.875740000000000407e+00 2.074499999999999955e-01 5.436840000000000117e+00 5.030890000000000306e+00 2.165799999999999947e-01 4.976820000000000022e+00 2.284499999999999864e-01 4.415000000000000174e-02 9.557999999999999829e-02 5.203870000000000218e+00 1.511699999999999988e-01 1.035746999999999929e+01 1.302899999999999892e-01 5.438699999999999868e+00 5.126750000000000362e+00 5.134619999999999962e+00 5.389619999999999855e+00 4.848580000000000112e+00 1.025303000000000075e+01 4.984680000000000000e+00 1.063207000000000058e+01 4.980570000000000164e+00 5.489679999999999893e+00 1.040296999999999983e+01 2.239000000000000018e-02 4.299179999999999779e+00 3.991899999999999782e+00 3.522060000000000191e+00 3.919309999999999850e+00 4.275190000000000268e+00 8.857100000000000861e+00 3.564410000000000078e+00 9.451729999999999521e+00 3.690240000000000187e+00 3.355700000000000127e+00 9.670289999999999608e+00 8.934200000000000585e+00 8.917870000000000630e+00 3.094450000000000145e+00 1.676409999999999956e+00 9.013419999999999987e+00 4.010449999999999626e+00 9.313660000000000494e+00 9.161030000000000229e+00 8.976919999999999789e+00 3.389540000000000219e+00 9.355119999999999436e+00 8.590859999999999275e+00 3.490300000000000069e-01 4.136739999999999640e+00 6.621099999999999763e-01 1.105290000000000106e+00 3.511309999999999931e+00 1.270450000000000079e+00 6.064530000000000420e+00 4.134070000000000356e+00 5.936119999999999841e+00 9.938700000000000312e-01 4.028620000000000090e+00 6.293849999999999945e+00 6.301759999999999806e+00 9.222530000000000783e+00 1.449900000000000078e-01 1.736199999999999966e+00 8.606870000000000687e+00 3.660100000000000020e-01 6.207939999999999792e+00 9.257369999999999877e+00 5.786719999999999864e+00 1.789630000000000054e+00 9.238440000000000651e+00 6.946720000000000006e+00 5.491660000000000430e+00 3.760670000000000179e+00 1.522629999999999928e+00 3.581700000000000106e+00 3.549510000000000165e+00 1.737489999999999979e+00 8.624219999999999331e+00 3.865180000000000060e+00 6.682459999999999845e+00 3.758280000000000065e+00 3.862200000000000077e+00 7.071270000000000167e+00 8.658490000000000464e+00 8.730430000000000135e+00 1.231849999999999890e+00 3.961059999999999803e+00 8.874209999999999710e+00 7.995299999999999629e-01 9.405030000000000001e+00 9.509159999999999613e+00 4.132939999999999614e+00 3.823020000000000085e+00 9.058230000000000004e+00 6.532110000000000305e+00 8.339800000000000324e+00 4.350920000000000343e+00 3.276409999999999823e+00 4.868799999999999795e-01 4.263320000000000221e+00 3.527449999999999974e+00 5.952899999999999636e+00 4.433880000000000265e+00 8.736259999999999692e+00 8.073700000000000321e-01 3.756040000000000045e+00 9.028480000000000061e+00 6.183449999999999669e+00 1.340829999999999966e+00 1.511249999999999982e+00 4.498940000000000161e+00 1.280410000000000048e+00 1.122759999999999980e+00 9.540889999999999205e+00 9.848799999999999777e-01 6.976289999999999658e+00 3.523820000000000174e+00 1.427100000000000035e+00 6.802649999999999864e+00 8.530089999999999506e+00 6.231379999999999697e+00 9.625700000000000367e-01 3.957329999999999792e+00 5.832519999999999705e+00 7.556800000000000184e-01 8.801239999999999952e+00 6.653780000000000250e+00 6.513790000000000191e+00 3.578329999999999789e+00 6.394090000000000273e+00 6.253389999999999560e+00 8.850910000000000721e+00 1.743789999999999951e+00 4.052909999999999791e+00 1.354260000000000019e+00 1.747209999999999930e+00 3.889510000000000023e+00 6.771770000000000067e+00 1.878579999999999917e+00 9.466390000000000526e+00 9.496900000000000341e-01 7.879699999999999482e-01 9.241199999999999193e+00 5.834649999999999892e+00 6.751350000000000406e+00 3.866779999999999884e+00 1.263549999999999951e+00 8.557399999999999451e+00 3.086619999999999919e+00 7.027199999999999669e+00 6.870860000000000412e+00 9.194340000000000401e+00 8.986499999999999488e-01 6.299640000000000128e+00 9.471479999999999677e+00 6.229840000000000266e+00 1.738080000000000069e+00 4.273489999999999789e+00 3.993889999999999940e+00 1.219540000000000068e+00 3.774500000000000188e+00 9.247080000000000410e+00 1.173850000000000060e+00 9.845499999999999474e+00 3.523029999999999884e+00 7.617399999999999727e-01 9.313729999999999620e+00 8.436289999999999623e+00 6.778330000000000410e+00 3.945240000000000080e+00 4.386079999999999757e+00 6.532899999999999707e+00 3.651330000000000187e+00 8.947279999999999234e+00 6.293800000000000061e+00 8.928259999999999863e+00 3.672719999999999985e+00 6.024989999999999846e+00 9.022230000000000416e+00 8.777950000000000585e+00 1.110090000000000021e+00 1.328580000000000094e+00 1.437340000000000062e+00 6.021800000000000486e-01 1.498180000000000067e+00 6.635650000000000048e+00 1.429540000000000033e+00 6.487400000000000055e+00 1.136730000000000018e+00 1.370689999999999964e+00 6.887809999999999988e+00 6.156789999999999985e+00 6.677330000000000432e+00 1.099739999999999940e+00 1.291500000000000092e+00 6.258740000000000414e+00 1.260869999999999935e+00 6.604580000000000339e+00 6.526130000000000209e+00 6.555559999999999832e+00 9.817799999999999860e-01 6.473499999999999588e+00 6.511059999999999626e+00 6.086000000000000298e+00