1.011455649300000026e+01 0.000000000000000000e+00 0.000000000000000000e+00 -6.736063700000000098e-02 1.011435087499999952e+01 0.000000000000000000e+00 -1.881580000000000101e-04 2.184730000000000070e-04 1.041764969900000004e+01
1.025565501700000048e+01 0.000000000000000000e+00 0.000000000000000000e+00 -6.830032099999999717e-02 1.025544653000000039e+01 0.000000000000000000e+00 -1.907830000000000062e-04 2.215209999999999955e-04 1.056297638799999916e+01
1.028676203500000064e+01 0.000000000000000000e+00 0.000000000000000000e+00 -6.850748600000000632e-02 1.028655291599999977e+01 0.000000000000000000e+00 -1.913619999999999883e-04 2.221930000000000053e-04 1.059501556000000022e+01
1.036559220500000045e+01 0.000000000000000000e+00 0.000000000000000000e+00 -6.903247699999999487e-02 1.036538148400000026e+01 0.000000000000000000e+00 -1.928280000000000044e-04 2.238949999999999968e-04 1.067620795800000089e+01
1.037491533999999938e+01 0.000000000000000000e+00 0.000000000000000000e+00 -6.909456699999999563e-02 1.037470442899999945e+01 0.000000000000000000e+00 -1.930020000000000065e-04 2.240970000000000060e-04 1.068581046999999984e+01
1.035629300299999933e+01 0.000000000000000000e+00 0.000000000000000000e+00 -6.897054699999999317e-02 1.035608247000000048e+01 0.000000000000000000e+00 -1.926549999999999910e-04 2.236949999999999919e-04 1.066663009500000037e+01
1.021058986499999932e+01 0.000000000000000000e+00 0.000000000000000000e+00 -6.800019699999999834e-02 1.021038229400000041e+01 0.000000000000000000e+00 -1.899450000000000118e-04 2.205470000000000011e-04 1.051656081099999973e+01
1.016471153900000068e+01 0.000000000000000000e+00 0.000000000000000000e+00 -6.769465800000000477e-02 1.016450490100000081e+01 0.000000000000000000e+00 -1.890910000000000095e-04 2.195560000000000101e-04 1.046930769299999930e+01
1.018882043500000023e+01 0.000000000000000000e+00 0.000000000000000000e+00 -6.785521799999999493e-02 1.018861330700000067e+01 0.000000000000000000e+00 -1.895400000000000047e-04 2.200770000000000005e-04 1.049413903700000006e+01
1.049317964900000000e+01 0.000000000000000000e+00 0.000000000000000000e+00 -6.988218000000000207e-02 1.049296633400000012e+01 0.000000000000000000e+00 -1.952020000000000057e-04 2.266509999999999955e-04 1.080761869200000014e+01
1.021602030100000036e+01 0.000000000000000000e+00 0.000000000000000000e+00 -6.803636200000000300e-02 1.021581261999999946e+01 0.000000000000000000e+00 -1.900460000000000029e-04 2.206649999999999888e-04 1.052215397600000024e+01
1.031313905000000020e+01 0.000000000000000000e+00 0.000000000000000000e+00 -6.868315099999999784e-02 1.031292939499999939e+01 0.000000000000000000e+00 -1.918529999999999942e-04 2.227630000000000083e-04 1.062218299000000066e+01
1.044271745600000045e+01 0.000000000000000000e+00 0.000000000000000000e+00 -6.954611400000000609e-02 1.044250516600000012e+01 0.000000000000000000e+00 -1.942629999999999932e-04 2.255609999999999907e-04 1.075564434700000049e+01
1.040692212000000083e+01 0.000000000000000000e+00 0.000000000000000000e+00 -6.930772500000000058e-02 1.040671055800000033e+01 0.000000000000000000e+00 -1.935969999999999965e-04 2.247879999999999898e-04 1.071877636700000025e+01
1.051013757800000015e+01 0.000000000000000000e+00 0.000000000000000000e+00 -6.999511599999999611e-02 1.050992391800000014e+01 0.000000000000000000e+00 -1.955170000000000052e-04 2.270180000000000006e-04 1.082508478299999943e+01
1.011285372500000079e+01 0.000000000000000000e+00 0.000000000000000000e+00 -6.734929700000000241e-02 1.011264814099999931e+01 0.000000000000000000e+00 -1.881270000000000099e-04 2.184359999999999937e-04 1.041589590599999937e+01
1.031161996099999989e+01 0.000000000000000000e+00 0.000000000000000000e+00 -6.867303399999999391e-02 1.031141033599999979e+01 0.000000000000000000e+00 -1.918239999999999984e-04 2.227300000000000037e-04 1.062061837899999972e+01
1.024628850400000069e+01 0.000000000000000000e+00 0.000000000000000000e+00 -6.823794199999999588e-02 1.024608020800000041e+01 0.000000000000000000e+00 -1.906090000000000041e-04 2.213190000000000133e-04 1.055332919700000005e+01
1.012735722899999935e+01 0.000000000000000000e+00 0.000000000000000000e+00 -6.744588699999999604e-02 1.012715135000000011e+01 0.000000000000000000e+00 -1.883970000000000056e-04 2.187500000000000046e-04 1.043083402200000087e+01
1.031968414700000025e+01 0.000000000000000000e+00 0.000000000000000000e+00 -6.872673999999999450e-02 1.031947435800000079e+01 0.000000000000000000e+00 -1.919740000000000021e-04 2.229040000000000058e-04 1.062892421599999970e+01
1.011018636700000073e+01 0.000000000000000000e+00 0.000000000000000000e+00 -6.733153299999999897e-02 1.010998083700000016e+01 0.000000000000000000e+00 -1.880770000000000087e-04 2.183789999999999907e-04 1.041314861699999916e+01
1.034742567800000046e+01 0.000000000000000000e+00 0.000000000000000000e+00 -6.891149200000000474e-02 1.034721532600000060e+01 0.000000000000000000e+00 -1.924899999999999951e-04 2.235030000000000046e-04 1.065749705200000008e+01
1.040044869799999994e+01 0.000000000000000000e+00 0.000000000000000000e+00 -6.926461300000000265e-02 1.040023726699999962e+01 0.000000000000000000e+00 -1.934770000000000044e-04 2.246480000000000081e-04 1.071210896100000021e+01
1.042054422400000036e+01 0.000000000000000000e+00 0.000000000000000000e+00 -6.939844500000000305e-02 1.042033238500000003e+01 0.000000000000000000e+00 -1.938510000000000114e-04 2.250820000000000110e-04 1.073280667100000052e+01
1.011071035400000007e+01 0.000000000000000000e+00 0.000000000000000000e+00 -6.733502199999999438e-02 1.011050481300000037e+01 0.000000000000000000e+00 -1.880870000000000035e-04 2.183900000000000012e-04 1.041368830599999917e+01
1.022944650099999997e+01 0.000000000000000000e+00 0.000000000000000000e+00 -6.812577799999999795e-02 1.022923854699999957e+01 0.000000000000000000e+00 -1.902960000000000090e-04 2.209550000000000012e-04 1.053598250599999986e+01
1.046774618899999965e+01 0.000000000000000000e+00 0.000000000000000000e+00 -6.971279900000000584e-02 1.046753338999999983e+01 0.000000000000000000e+00 -1.947290000000000121e-04 2.261019999999999979e-04 1.078142309200000071e+01
1.039078982899999914e+01 0.000000000000000000e+00 0.000000000000000000e+00 -6.920028799999999869e-02 1.039057859499999914e+01 0.000000000000000000e+00 -1.932969999999999892e-04 2.244400000000000128e-04 1.070216065400000005e+01
1.037467849799999975e+01 0.000000000000000000e+00 0.000000000000000000e+00 -6.909299000000000690e-02 1.037446759200000024e+01 0.000000000000000000e+00 -1.929970000000000090e-04 2.240920000000000086e-04 1.068556653099999920e+01
1.009679809700000064e+01 0.000000000000000000e+00 0.000000000000000000e+00 -6.724236999999999576e-02 1.009659283999999957e+01 0.000000000000000000e+00 -1.878279999999999913e-04 2.180899999999999939e-04 1.039935915500000085e+01
1.023568712900000044e+01 0.000000000000000000e+00 0.000000000000000000e+00 -6.816733899999999347e-02 1.023547904800000019e+01 0.000000000000000000e+00 -1.904119999999999923e-04 2.210900000000000126e-04 1.054241014099999951e+01
1.020603320000000025e+01 0.000000000000000000e+00 0.000000000000000000e+00 -6.796985099999999780e-02 1.020582572200000016e+01 0.000000000000000000e+00 -1.898600000000000016e-04 2.204490000000000030e-04 1.051186760100000050e+01
1.008936210399999922e+01 0.000000000000000000e+00 0.000000000000000000e+00 -6.719284799999999946e-02 1.008915699799999999e+01 0.000000000000000000e+00 -1.876899999999999868e-04 2.179290000000000068e-04 1.039170033499999946e+01
1.030861664600000083e+01 0.000000000000000000e+00 0.000000000000000000e+00 -6.865303300000000220e-02 1.030840708200000044e+01 0.000000000000000000e+00 -1.917680000000000112e-04 2.226650000000000103e-04 1.061752506700000076e+01
1.024731582399999930e+01 0.000000000000000000e+00 0.000000000000000000e+00 -6.824478300000000330e-02 1.024710750700000084e+01 0.000000000000000000e+00 -1.906280000000000051e-04 2.213410000000000074e-04 1.055438730200000030e+01
1.011343945299999980e+01 0.000000000000000000e+00 0.000000000000000000e+00 -6.735319700000000354e-02 1.011323385700000088e+01 0.000000000000000000e+00 -1.881379999999999934e-04 2.184490000000000086e-04 1.041649918599999936e+01
1.013730132200000078e+01 0.000000000000000000e+00 0.000000000000000000e+00 -6.751211199999999912e-02 1.013709524100000081e+01 0.000000000000000000e+00 -1.885819999999999912e-04 2.189640000000000130e-04 1.044107610000000008e+01
1.009086498199999937e+01 0.000000000000000000e+00 0.000000000000000000e+00 -6.720285700000000473e-02 1.009065984499999935e+01 0.000000000000000000e+00 -1.877179999999999940e-04 2.179609999999999957e-04 1.039324824700000072e+01
1.024565279199999956e+01 0.000000000000000000e+00 0.000000000000000000e+00 -6.823370800000000402e-02 1.024544450800000028e+01 0.000000000000000000e+00 -1.905970000000000049e-04 2.213050000000000097e-04 1.055267443500000013e+01
1.025883163700000011e+01 0.000000000000000000e+00 0.000000000000000000e+00 -6.832147600000000598e-02 1.025862308600000006e+01 0.000000000000000000e+00 -1.908419999999999865e-04 2.215890000000000091e-04 1.056624819800000026e+01
1.035104824999999984e+01 0.000000000000000000e+00 0.000000000000000000e+00 -6.893561800000000406e-02 1.035083782399999919e+01 0.000000000000000000e+00 -1.925580000000000087e-04 2.235810000000000130e-04 1.066122817800000000e+01
1.016420241900000043e+01 0.000000000000000000e+00 0.000000000000000000e+00 -6.769126699999999941e-02 1.016399579099999961e+01 0.000000000000000000e+00 -1.890820000000000033e-04 2.195449999999999995e-04 1.046878331699999976e+01
1.012476981300000034e+01 0.000000000000000000e+00 0.000000000000000000e+00 -6.742865500000000401e-02 1.012456398700000015e+01 0.000000000000000000e+00 -1.883479999999999931e-04 2.186939999999999902e-04 1.042816907199999932e+01
1.034041405099999977e+01 0.000000000000000000e+00 0.000000000000000000e+00 -6.886479600000000589e-02 1.034020384099999923e+01 0.000000000000000000e+00 -1.923600000000000082e-04 2.233520000000000123e-04 1.065027531399999994e+01
1.012810318900000084e+01 0.000000000000000000e+00 0.000000000000000000e+00 -6.745085500000000400e-02 1.012789729500000036e+01 0.000000000000000000e+00 -1.884099999999999935e-04 2.187660000000000125e-04 1.043160233599999920e+01
1.013483478200000043e+01 0.000000000000000000e+00 0.000000000000000000e+00 -6.749568499999999971e-02 1.013462875199999935e+01 0.000000000000000000e+00 -1.885359999999999987e-04 2.189109999999999917e-04 1.043853564900000030e+01
1.036979847399999954e+01 0.000000000000000000e+00 0.000000000000000000e+00 -6.906049000000000215e-02 1.036958766699999934e+01 0.000000000000000000e+00 -1.929070000000000014e-04 2.239859999999999930e-04 1.068054027200000000e+01
1.032865045500000001e+01 0.000000000000000000e+00 0.000000000000000000e+00 -6.878645399999999688e-02 1.032844048399999970e+01 0.000000000000000000e+00 -1.921410000000000023e-04 2.230979999999999975e-04 1.063815920999999953e+01
1.027376564699999939e+01 0.000000000000000000e+00 0.000000000000000000e+00 -6.842093300000000322e-02 1.027355679200000083e+01 0.000000000000000000e+00 -1.911199999999999997e-04 2.219119999999999990e-04 1.058162972100000054e+01
1.041409591500000076e+01 0.000000000000000000e+00 0.000000000000000000e+00 -6.935550099999999996e-02 1.041388420700000061e+01 0.000000000000000000e+00 -1.937309999999999922e-04 2.249429999999999908e-04 1.072616513100000013e+01
1.035936602399999984e+01 0.000000000000000000e+00 0.000000000000000000e+00 -6.899101200000000433e-02 1.035915542899999942e+01 0.000000000000000000e+00 -1.927130000000000097e-04 2.237610000000000011e-04 1.066979520299999962e+01
1.022603926700000088e+01 0.000000000000000000e+00 0.000000000000000000e+00 -6.810308599999999324e-02 1.022583138200000086e+01 0.000000000000000000e+00 -1.902320000000000042e-04 2.208810000000000016e-04 1.053247317099999947e+01
1.052638659199999971e+01 0.000000000000000000e+00 0.000000000000000000e+00 -7.010333100000000484e-02 1.052617260100000074e+01 0.000000000000000000e+00 -1.958200000000000056e-04 2.273689999999999978e-04 1.084182071500000077e+01
1.018815727700000018e+01 0.000000000000000000e+00 0.000000000000000000e+00 -6.785080100000000225e-02 1.018795016199999992e+01 0.000000000000000000e+00 -1.895280000000000055e-04 2.200629999999999969e-04 1.049345600700000070e+01
1.044413964399999983e+01 0.000000000000000000e+00 0.000000000000000000e+00 -6.955558500000000310e-02 1.044392732500000065e+01 0.000000000000000000e+00 -1.942900000000000117e-04 2.255919999999999909e-04 1.075710915199999995e+01
1.052227498000000061e+01 0.000000000000000000e+00 0.000000000000000000e+00 -7.007594899999999849e-02 1.052206107299999971e+01 0.000000000000000000e+00 -1.957430000000000129e-04 2.272800000000000059e-04 1.083758589500000014e+01
1.012221121199999985e+01 0.000000000000000000e+00 0.000000000000000000e+00 -6.741161499999999418e-02 1.012200543800000041e+01 0.000000000000000000e+00 -1.883010000000000120e-04 2.186380000000000029e-04 1.042553380000000018e+01
1.030619857699999997e+01 0.000000000000000000e+00 0.000000000000000000e+00 -6.863692899999999930e-02 1.030598906300000017e+01 0.000000000000000000e+00 -1.917239999999999960e-04 2.226130000000000047e-04 1.061503453799999974e+01
1.042991843999999979e+01 0.000000000000000000e+00 0.000000000000000000e+00 -6.946087500000000525e-02 1.042970640999999965e+01 0.000000000000000000e+00 -1.940250000000000134e-04 2.252850000000000089e-04 1.074246179500000054e+01
1.040552643500000052e+01 0.000000000000000000e+00 0.000000000000000000e+00 -6.929842999999999420e-02 1.040531490200000064e+01 0.000000000000000000e+00 -1.935709999999999937e-04 2.247580000000000053e-04 1.071733885899999983e+01
1.026831780700000074e+01 0.000000000000000000e+00 0.000000000000000000e+00 -6.838465200000000410e-02 1.026810906300000070e+01 0.000000000000000000e+00 -1.910190000000000087e-04 2.217940000000000113e-04 1.057601863100000017e+01
1.019506058099999990e+01 0.000000000000000000e+00 0.000000000000000000e+00 -6.789677500000000643e-02 1.019485332600000049e+01 0.000000000000000000e+00 -1.896559999999999880e-04 2.202120000000000119e-04 1.050056617599999953e+01
1.008610499599999955e+01 0.000000000000000000e+00 0.000000000000000000e+00 -6.717115599999999576e-02 1.008589995600000044e+01 0.000000000000000000e+00 -1.876290000000000022e-04 2.178589999999999889e-04 1.038834562399999939e+01
1.017543018900000007e+01 0.000000000000000000e+00 0.000000000000000000e+00 -6.776604199999999856e-02 1.017522333299999993e+01 0.000000000000000000e+00 -1.892909999999999873e-04 2.197880000000000038e-04 1.048034753900000027e+01
1.046929107200000075e+01 0.000000000000000000e+00 0.000000000000000000e+00 -6.972308800000000251e-02 1.046907824200000015e+01 0.000000000000000000e+00 -1.947569999999999922e-04 2.261350000000000025e-04 1.078301426900000060e+01
1.042234855699999940e+01 0.000000000000000000e+00 0.000000000000000000e+00 -6.941046100000000663e-02 1.042213668099999957e+01 0.000000000000000000e+00 -1.938839999999999889e-04 2.251210000000000017e-04 1.073466507300000039e+01
1.037363417000000076e+01 0.000000000000000000e+00 0.000000000000000000e+00 -6.908603500000000397e-02 1.037342328499999944e+01 0.000000000000000000e+00 -1.929780000000000080e-04 2.240689999999999989e-04 1.068449090800000079e+01
1.011884888900000057e+01 0.000000000000000000e+00 0.000000000000000000e+00 -6.738922299999999810e-02 1.011864318399999974e+01 0.000000000000000000e+00 -1.882379999999999958e-04 2.185660000000000077e-04 1.042207072200000084e+01
1.033551923899999991e+01 0.000000000000000000e+00 0.000000000000000000e+00 -6.883219799999999722e-02 1.033530912800000046e+01 0.000000000000000000e+00 -1.922690000000000119e-04 2.232459999999999967e-04 1.064523382299999987e+01
1.032007588399999953e+01 0.000000000000000000e+00 0.000000000000000000e+00 -6.872934899999999514e-02 1.031986608699999941e+01 0.000000000000000000e+00 -1.919819999999999925e-04 2.229119999999999962e-04 1.062932769200000038e+01
1.007829663699999934e+01 0.000000000000000000e+00 0.000000000000000000e+00 -6.711915400000000032e-02 1.007809175599999918e+01 0.000000000000000000e+00 -1.874839999999999959e-04 2.176900000000000113e-04 1.038030327899999961e+01
1.025794278000000048e+01 0.000000000000000000e+00 0.000000000000000000e+00 -6.831555699999999898e-02 1.025773424700000014e+01 0.000000000000000000e+00 -1.908260000000000056e-04 2.215700000000000080e-04 1.056533270599999952e+01
1.017105474799999953e+01 0.000000000000000000e+00 0.000000000000000000e+00 -6.773690200000000161e-02 1.017084798099999965e+01 0.000000000000000000e+00 -1.892089999999999972e-04 2.196929999999999987e-04 1.047584098399999952e+01
1.054426171799999956e+01 0.000000000000000000e+00 0.000000000000000000e+00 -7.022237500000000354e-02 1.054404736400000075e+01 0.000000000000000000e+00 -1.961520000000000017e-04 2.277550000000000039e-04 1.086023148800000016e+01
1.027545946899999940e+01 0.000000000000000000e+00 0.000000000000000000e+00 -6.843221400000000509e-02 1.027525057999999980e+01 0.000000000000000000e+00 -1.911519999999999886e-04 2.219490000000000124e-04 1.058337430099999921e+01
1.011325182799999922e+01 0.000000000000000000e+00 0.000000000000000000e+00 -6.735194799999999482e-02 1.011304623600000063e+01 0.000000000000000000e+00 -1.881340000000000117e-04 2.184449999999999999e-04 1.041630593900000079e+01
1.043957879200000072e+01 0.000000000000000000e+00 0.000000000000000000e+00 -6.952521100000000343e-02 1.043936656600000035e+01 0.000000000000000000e+00 -1.942050000000000015e-04 2.254939999999999928e-04 1.075241162999999922e+01
1.011048488700000014e+01 0.000000000000000000e+00 0.000000000000000000e+00 -6.733352099999999341e-02 1.011027935199999916e+01 0.000000000000000000e+00 -1.880829999999999948e-04 2.183850000000000038e-04 1.041345608399999989e+01
1.025988213199999954e+01 0.000000000000000000e+00 0.000000000000000000e+00 -6.832847200000000121e-02 1.025967355899999944e+01 0.000000000000000000e+00 -1.908620000000000032e-04 2.216119999999999917e-04 1.056733017200000013e+01
1.023384102500000026e+01 0.000000000000000000e+00 0.000000000000000000e+00 -6.815504399999999796e-02 1.023363298099999952e+01 0.000000000000000000e+00 -1.903770000000000104e-04 2.210500000000000062e-04 1.054050871599999972e+01
1.022341792599999977e+01 0.000000000000000000e+00 0.000000000000000000e+00 -6.808562899999999474e-02 1.022321009400000058e+01 0.000000000000000000e+00 -1.901840000000000073e-04 2.208249999999999872e-04 1.052977327800000040e+01
1.041688768300000056e+01 0.000000000000000000e+00 0.000000000000000000e+00 -6.937409299999999779e-02 1.041667591799999926e+01 0.000000000000000000e+00 -1.937829999999999978e-04 2.250029999999999869e-04 1.072904055799999945e+01
1.038661174499999973e+01 0.000000000000000000e+00 0.000000000000000000e+00 -6.917246200000000400e-02 1.038640059599999965e+01 0.000000000000000000e+00 -1.932190000000000079e-04 2.243500000000000051e-04 1.069785736999999948e+01
1.007258327199999925e+01 0.000000000000000000e+00 0.000000000000000000e+00 -6.708110500000000198e-02 1.007237850599999973e+01 0.000000000000000000e+00 -1.873780000000000074e-04 2.175669999999999991e-04 1.037441870700000024e+01
1.045267001200000045e+01 0.000000000000000000e+00 0.000000000000000000e+00 -6.961239499999999358e-02 1.045245751999999939e+01 0.000000000000000000e+00 -1.944480000000000058e-04 2.257759999999999878e-04 1.076589514199999975e+01
1.011783338000000043e+01 0.000000000000000000e+00 0.000000000000000000e+00 -6.738246000000000513e-02 1.011762769499999948e+01 0.000000000000000000e+00 -1.882189999999999948e-04 2.185439999999999865e-04 1.042102478199999993e+01
1.037249153700000015e+01 0.000000000000000000e+00 0.000000000000000000e+00 -6.907842499999999886e-02 1.037228067500000073e+01 0.000000000000000000e+00 -1.929570000000000026e-04 2.240450000000000004e-04 1.068331403500000043e+01
1.009731000400000056e+01 0.000000000000000000e+00 0.000000000000000000e+00 -6.724577900000000552e-02 1.009710473700000044e+01 0.000000000000000000e+00 -1.878380000000000132e-04 2.181010000000000045e-04 1.039988640199999992e+01
1.017360673399999982e+01 0.000000000000000000e+00 0.000000000000000000e+00 -6.775389800000000684e-02 1.017339991499999918e+01 0.000000000000000000e+00 -1.892569999999999940e-04 2.197490000000000131e-04 1.047846944199999975e+01
1.052009556400000001e+01 0.000000000000000000e+00 0.000000000000000000e+00 -7.006143400000000576e-02 1.051988170199999928e+01 0.000000000000000000e+00 -1.957030000000000065e-04 2.272329999999999977e-04 1.083534117099999960e+01
1.033323632399999958e+01 0.000000000000000000e+00 0.000000000000000000e+00 -6.881699400000000633e-02 1.033302626000000046e+01 0.000000000000000000e+00 -1.922260000000000125e-04 2.231970000000000113e-04 1.064288249900000061e+01
1.034852289200000008e+01 0.000000000000000000e+00 0.000000000000000000e+00 -6.891879900000000281e-02 1.034831251700000010e+01 0.000000000000000000e+00 -1.925110000000000005e-04 2.235270000000000030e-04 1.065862714500000052e+01
1.033778278600000000e+01 0.000000000000000000e+00 0.000000000000000000e+00 -6.884727300000000050e-02 1.033757263000000037e+01 0.000000000000000000e+00 -1.923109999999999956e-04 2.232950000000000093e-04 1.064756520100000081e+01
1.035199151299999976e+01 0.000000000000000000e+00 0.000000000000000000e+00 -6.894190000000000040e-02 1.035178106799999931e+01 0.000000000000000000e+00 -1.925750000000000053e-04 2.236019999999999913e-04 1.066219970699999919e+01
1.050948827400000063e+01 0.000000000000000000e+00 0.000000000000000000e+00 -6.999079199999999612e-02 1.050927462699999992e+01 0.000000000000000000e+00 -1.955050000000000060e-04 2.270039999999999970e-04 1.082441602199999942e+01
1.035604485600000046e+01 0.000000000000000000e+00 0.000000000000000000e+00 -6.896889400000000281e-02 1.035583432900000034e+01 0.000000000000000000e+00 -1.926510000000000093e-04 2.236890000000000059e-04 1.066637451200000086e+01
1.025352144300000035e+01 0.000000000000000000e+00 0.000000000000000000e+00 -6.828611099999999656e-02 1.025331299900000026e+01 0.000000000000000000e+00 -1.907439999999999884e-04 2.214750000000000030e-04 1.056077887800000070e+01
1.027461177200000009e+01 0.000000000000000000e+00 0.000000000000000000e+00 -6.842656799999999317e-02 1.027440290000000012e+01 0.000000000000000000e+00 -1.911360000000000077e-04 2.219300000000000114e-04 1.058250120099999947e+01
1.011141021299999920e+01 0.000000000000000000e+00 0.000000000000000000e+00 -6.733968299999999740e-02 1.011120465800000012e+01 0.000000000000000000e+00 -1.880999999999999914e-04 2.184049999999999935e-04 1.041440913699999982e+01
1.043325721999999978e+01 0.000000000000000000e+00 0.000000000000000000e+00 -6.948311100000000018e-02 1.043304512299999942e+01 0.000000000000000000e+00 -1.940869999999999867e-04 2.253570000000000041e-04 1.074590062500000087e+01
