1.031220758899999979e+01 0.000000000000000000e+00 0.000000000000000000e+00 7.746298499999999809e-02 1.038956794599999967e+01 0.000000000000000000e+00 -2.366315000000000085e-02 1.003768349999999976e-01 1.074563612500000076e+01
1.034180957100000064e+01 0.000000000000000000e+00 0.000000000000000000e+00 7.768534800000000129e-02 1.041939199599999988e+01 0.000000000000000000e+00 -2.373107699999999973e-02 1.006649740000000043e-01 1.077648229699999938e+01
1.040945933799999956e+01 0.000000000000000000e+00 0.000000000000000000e+00 7.819351800000000352e-02 1.048754925999999976e+01 0.000000000000000000e+00 -2.388631100000000035e-02 1.013234630000000025e-01 1.084697542500000012e+01
1.006368876700000037e+01 0.000000000000000000e+00 0.000000000000000000e+00 7.559616700000000578e-02 1.013918477900000070e+01 0.000000000000000000e+00 -2.309288099999999913e-02 9.795780599999999450e-02 1.048667190099999935e+01
1.028219683700000076e+01 0.000000000000000000e+00 0.000000000000000000e+00 -5.264675500000000341e-02 1.030619466499999959e+01 0.000000000000000000e+00 -5.773097299999999793e-02 3.973230400000000301e-02 1.072991212099999991e+01
1.028058752899999995e+01 0.000000000000000000e+00 0.000000000000000000e+00 7.722546199999999472e-02 1.035771067700000003e+01 0.000000000000000000e+00 -2.359059299999999998e-02 1.000690520000000056e-01 1.071268705399999988e+01
1.022664699199999916e+01 0.000000000000000000e+00 0.000000000000000000e+00 7.682027299999999448e-02 1.030336548800000074e+01 0.000000000000000000e+00 -2.346681700000000093e-02 9.954400600000000432e-02 1.065647936300000076e+01
1.032219609999999932e+01 0.000000000000000000e+00 0.000000000000000000e+00 -5.285155899999999934e-02 1.034628728300000056e+01 0.000000000000000000e+00 -5.795555499999999888e-02 3.988686899999999841e-02 1.077165306300000047e+01
1.023328240700000080e+01 0.000000000000000000e+00 0.000000000000000000e+00 7.687011600000000222e-02 1.031005067999999980e+01 0.000000000000000000e+00 -2.348204300000000105e-02 9.960859399999999475e-02 1.066339366799999944e+01
1.028721039400000059e+01 0.000000000000000000e+00 0.000000000000000000e+00 -5.267242500000000188e-02 1.031121992299999945e+01 0.000000000000000000e+00 -5.775912300000000249e-02 3.975167799999999863e-02 1.073514398200000031e+01
1.041296896399999916e+01 0.000000000000000000e+00 0.000000000000000000e+00 7.821988100000000499e-02 1.049108521399999994e+01 0.000000000000000000e+00 -2.389436500000000074e-02 1.013576250000000067e-01 1.085063256299999956e+01
1.022421026700000013e+01 0.000000000000000000e+00 0.000000000000000000e+00 7.680196899999999771e-02 1.030091048299999912e+01 0.000000000000000000e+00 -2.346122499999999875e-02 9.952028799999999842e-02 1.065394022000000085e+01
1.039636774300000077e+01 0.000000000000000000e+00 0.000000000000000000e+00 7.809517700000000173e-02 1.047435945400000001e+01 0.000000000000000000e+00 -2.385627099999999834e-02 1.011960320000000052e-01 1.083333358299999993e+01
1.036739275499999913e+01 0.000000000000000000e+00 0.000000000000000000e+00 7.787752300000000405e-02 1.044516710099999912e+01 0.000000000000000000e+00 -2.378978199999999890e-02 1.009139960000000058e-01 1.080314075799999962e+01
1.026314892100000087e+01 0.000000000000000000e+00 0.000000000000000000e+00 -5.254922599999999749e-02 1.028710229200000015e+01 0.000000000000000000e+00 -5.762402600000000180e-02 3.965869999999999812e-02 1.071003480599999946e+01
1.024269258800000060e+01 0.000000000000000000e+00 0.000000000000000000e+00 -5.244448599999999849e-02 1.026659821600000022e+01 0.000000000000000000e+00 -5.750917099999999782e-02 3.957965299999999936e-02 1.068868774799999954e+01
1.027723419600000021e+01 0.000000000000000000e+00 0.000000000000000000e+00 -5.262134499999999993e-02 1.030122044099999989e+01 0.000000000000000000e+00 -5.770311000000000190e-02 3.971312800000000032e-02 1.072473339299999928e+01
1.047301125599999949e+01 0.000000000000000000e+00 0.000000000000000000e+00 7.867090599999999878e-02 1.055157793300000080e+01 0.000000000000000000e+00 -2.403214199999999939e-02 1.019420639999999989e-01 1.091319846999999932e+01
1.032334203699999975e+01 0.000000000000000000e+00 0.000000000000000000e+00 -5.285742599999999902e-02 1.034743589500000027e+01 0.000000000000000000e+00 -5.796198899999999848e-02 3.989129699999999917e-02 1.077284889699999937e+01
1.016357893099999998e+01 0.000000000000000000e+00 0.000000000000000000e+00 7.634652000000000105e-02 1.023982430100000052e+01 0.000000000000000000e+00 -2.332209600000000049e-02 9.893011499999999903e-02 1.059076051099999916e+01
1.028612627799999935e+01 0.000000000000000000e+00 0.000000000000000000e+00 -5.266687400000000241e-02 1.031013327600000018e+01 0.000000000000000000e+00 -5.775303600000000065e-02 3.974748799999999749e-02 1.073401265999999943e+01
1.038002248899999991e+01 0.000000000000000000e+00 0.000000000000000000e+00 -5.314764000000000294e-02 1.040424863400000000e+01 0.000000000000000000e+00 -5.828023000000000231e-02 4.011032099999999739e-02 1.083199737300000010e+01
1.030103326999999958e+01 0.000000000000000000e+00 0.000000000000000000e+00 7.737904600000000688e-02 1.037830979900000017e+01 0.000000000000000000e+00 -2.363750900000000099e-02 1.002680670000000024e-01 1.073399214199999996e+01
1.030521999199999961e+01 0.000000000000000000e+00 0.000000000000000000e+00 -5.276463800000000259e-02 1.032927155399999997e+01 0.000000000000000000e+00 -5.786024000000000028e-02 3.982126999999999889e-02 1.075393776800000012e+01
1.016093096600000045e+01 0.000000000000000000e+00 0.000000000000000000e+00 7.632662899999999306e-02 1.023715647200000056e+01 0.000000000000000000e+00 -2.331601999999999980e-02 9.890433999999999337e-02 1.058800125099999967e+01
1.002027166799999947e+01 0.000000000000000000e+00 0.000000000000000000e+00 7.527002800000000271e-02 1.009544197299999979e+01 0.000000000000000000e+00 -2.299325300000000169e-02 9.753519300000000614e-02 1.044142995400000018e+01
1.033044512700000084e+01 0.000000000000000000e+00 0.000000000000000000e+00 7.759998099999999843e-02 1.040794229800000004e+01 0.000000000000000000e+00 -2.370500000000000038e-02 1.005543549999999980e-01 1.076464019800000038e+01
1.037995885900000026e+01 0.000000000000000000e+00 0.000000000000000000e+00 7.797191700000000170e-02 1.045782747400000012e+01 0.000000000000000000e+00 -2.381861700000000026e-02 1.010363110000000036e-01 1.081623502399999914e+01
1.032878810000000058e+01 0.000000000000000000e+00 0.000000000000000000e+00 7.758753399999999967e-02 1.040627283999999975e+01 0.000000000000000000e+00 -2.370119700000000024e-02 1.005382259999999944e-01 1.076291352500000009e+01
1.019467665200000006e+01 0.000000000000000000e+00 0.000000000000000000e+00 -5.219863500000000017e-02 1.021847021399999988e+01 0.000000000000000000e+00 -5.723957799999999929e-02 3.939411000000000301e-02 1.063858106500000034e+01
1.016530280899999994e+01 0.000000000000000000e+00 0.000000000000000000e+00 7.635946899999999926e-02 1.024156111199999941e+01 0.000000000000000000e+00 -2.332605199999999990e-02 9.894689500000000693e-02 1.059255684500000072e+01
1.033544797300000084e+01 0.000000000000000000e+00 0.000000000000000000e+00 -5.291941099999999953e-02 1.035957008499999965e+01 0.000000000000000000e+00 -5.802995999999999849e-02 3.993807600000000291e-02 1.078548195900000017e+01
1.031563529299999971e+01 0.000000000000000000e+00 0.000000000000000000e+00 -5.281796600000000091e-02 1.033971116400000057e+01 0.000000000000000000e+00 -5.791871900000000045e-02 3.986151699999999909e-02 1.076480658000000012e+01
1.022268910300000044e+01 0.000000000000000000e+00 0.000000000000000000e+00 7.679054200000000330e-02 1.029937790800000030e+01 0.000000000000000000e+00 -2.345773500000000039e-02 9.950548100000000673e-02 1.065235512099999937e+01
1.037707458699999918e+01 0.000000000000000000e+00 0.000000000000000000e+00 7.795025099999999818e-02 1.045492156399999928e+01 0.000000000000000000e+00 -2.381199900000000036e-02 1.010082370000000007e-01 1.081322952400000048e+01
1.016283958300000023e+01 0.000000000000000000e+00 0.000000000000000000e+00 7.634096599999999622e-02 1.023907940700000019e+01 0.000000000000000000e+00 -2.332040000000000154e-02 9.892291899999999805e-02 1.058999008800000041e+01
1.022904558599999980e+01 0.000000000000000000e+00 0.000000000000000000e+00 -5.237461100000000147e-02 1.025291936300000017e+01 0.000000000000000000e+00 -5.743254700000000046e-02 3.952691800000000116e-02 1.067444651699999980e+01
1.028467582699999916e+01 0.000000000000000000e+00 0.000000000000000000e+00 -5.265944799999999759e-02 1.030867944000000058e+01 0.000000000000000000e+00 -5.774489199999999905e-02 3.974188399999999816e-02 1.073249905299999973e+01
1.030438266600000041e+01 0.000000000000000000e+00 0.000000000000000000e+00 7.740420600000000317e-02 1.038168432199999991e+01 0.000000000000000000e+00 -2.364519500000000080e-02 1.003006689999999951e-01 1.073748231599999947e+01
1.021671579500000071e+01 0.000000000000000000e+00 0.000000000000000000e+00 7.674567200000000089e-02 1.029335978800000007e+01 0.000000000000000000e+00 -2.344402799999999870e-02 9.944733799999999624e-02 1.064613075099999939e+01
1.021298534599999996e+01 0.000000000000000000e+00 0.000000000000000000e+00 -5.229237899999999994e-02 1.023682164000000050e+01 0.000000000000000000e+00 -5.734237500000000098e-02 3.946485799999999849e-02 1.065768697000000031e+01
1.036564799699999995e+01 0.000000000000000000e+00 0.000000000000000000e+00 -5.307404000000000288e-02 1.038984059300000062e+01 0.000000000000000000e+00 -5.819952300000000300e-02 4.005477500000000080e-02 1.081699697600000043e+01
1.025645970399999918e+01 0.000000000000000000e+00 0.000000000000000000e+00 7.704421899999999712e-02 1.033340184999999956e+01 0.000000000000000000e+00 -2.353522699999999884e-02 9.983419699999999952e-02 1.068754512199999951e+01
1.001064910400000052e+01 0.000000000000000000e+00 0.000000000000000000e+00 7.519774499999999640e-02 1.008574722300000026e+01 0.000000000000000000e+00 -2.297117200000000151e-02 9.744152899999999895e-02 1.043140294900000065e+01
1.033350503099999962e+01 0.000000000000000000e+00 0.000000000000000000e+00 7.762296600000000157e-02 1.041102515699999920e+01 0.000000000000000000e+00 -2.371202099999999979e-02 1.005841400000000024e-01 1.076782871099999994e+01
1.023502019800000085e+01 0.000000000000000000e+00 0.000000000000000000e+00 -5.240520199999999795e-02 1.025890791900000032e+01 0.000000000000000000e+00 -5.746609300000000281e-02 3.955000499999999919e-02 1.068068128100000003e+01
1.011512601699999969e+01 0.000000000000000000e+00 0.000000000000000000e+00 7.598255199999999487e-02 1.019100790200000084e+01 0.000000000000000000e+00 -2.321091299999999968e-02 9.845848499999999837e-02 1.054027109099999926e+01
1.021467254999999952e+01 0.000000000000000000e+00 0.000000000000000000e+00 -5.230101799999999773e-02 1.023851278200000081e+01 0.000000000000000000e+00 -5.735184799999999694e-02 3.947137800000000141e-02 1.065944763999999978e+01
1.023269334599999958e+01 0.000000000000000000e+00 0.000000000000000000e+00 -5.239328800000000314e-02 1.025657563600000088e+01 0.000000000000000000e+00 -5.745302800000000321e-02 3.954101399999999933e-02 1.067825311100000008e+01
1.032179101600000060e+01 0.000000000000000000e+00 0.000000000000000000e+00 -5.284948400000000213e-02 1.034588125299999994e+01 0.000000000000000000e+00 -5.795328100000000232e-02 3.988530299999999695e-02 1.077123034000000068e+01
1.028688007400000082e+01 0.000000000000000000e+00 0.000000000000000000e+00 7.727272999999999781e-02 1.036405042800000054e+01 0.000000000000000000e+00 -2.360503200000000149e-02 1.001303020000000044e-01 1.071924407799999912e+01
1.034481745000000075e+01 0.000000000000000000e+00 0.000000000000000000e+00 -5.296738399999999930e-02 1.036896142900000051e+01 0.000000000000000000e+00 -5.808256600000000214e-02 3.997428199999999987e-02 1.079525940899999981e+01
1.026466940999999977e+01 0.000000000000000000e+00 0.000000000000000000e+00 7.710588899999999690e-02 1.034167314399999960e+01 0.000000000000000000e+00 -2.355406599999999850e-02 9.991410800000000147e-02 1.069609988700000081e+01
1.036096233499999997e+01 0.000000000000000000e+00 0.000000000000000000e+00 -5.305004900000000190e-02 1.038514399499999996e+01 0.000000000000000000e+00 -5.817321400000000087e-02 4.003666899999999695e-02 1.081210728699999990e+01
1.036922961399999998e+01 0.000000000000000000e+00 0.000000000000000000e+00 7.789132099999999947e-02 1.044701773999999972e+01 0.000000000000000000e+00 -2.379399700000000076e-02 1.009318750000000042e-01 1.080505482200000067e+01
1.000837053899999951e+01 0.000000000000000000e+00 0.000000000000000000e+00 7.518062899999999882e-02 1.008345156400000064e+01 0.000000000000000000e+00 -2.296594399999999855e-02 9.741935000000000178e-02 1.042902861399999992e+01
1.032268569200000030e+01 0.000000000000000000e+00 0.000000000000000000e+00 7.754169399999999435e-02 1.040012465300000066e+01 0.000000000000000000e+00 -2.368719400000000169e-02 1.004788270000000067e-01 1.075655462900000003e+01
1.028480702100000066e+01 0.000000000000000000e+00 0.000000000000000000e+00 -5.266011999999999776e-02 1.030881094100000084e+01 0.000000000000000000e+00 -5.774562899999999971e-02 3.974239000000000244e-02 1.073263595999999964e+01
1.044208325199999976e+01 0.000000000000000000e+00 0.000000000000000000e+00 7.843858099999999334e-02 1.052041791199999921e+01 0.000000000000000000e+00 -2.396117299999999881e-02 1.016410170000000002e-01 1.088097054300000011e+01
1.028690235100000017e+01 0.000000000000000000e+00 0.000000000000000000e+00 -5.267084799999999928e-02 1.031091116099999994e+01 0.000000000000000000e+00 -5.775739299999999715e-02 3.975048700000000101e-02 1.073482252600000031e+01
1.035512548800000054e+01 0.000000000000000000e+00 0.000000000000000000e+00 -5.302016300000000210e-02 1.037929352499999958e+01 0.000000000000000000e+00 -5.814044200000000051e-02 4.001411400000000340e-02 1.080601628700000028e+01
1.031947928399999981e+01 0.000000000000000000e+00 0.000000000000000000e+00 7.751760800000000173e-02 1.039689419199999953e+01 0.000000000000000000e+00 -2.367983699999999872e-02 1.004476160000000035e-01 1.075321345400000084e+01
1.036105869900000087e+01 0.000000000000000000e+00 0.000000000000000000e+00 -5.305054199999999914e-02 1.038524058399999994e+01 0.000000000000000000e+00 -5.817375500000000060e-02 4.003704100000000238e-02 1.081220784699999982e+01
1.016906306099999924e+01 0.000000000000000000e+00 0.000000000000000000e+00 -5.206748900000000152e-02 1.019279684400000008e+01 0.000000000000000000e+00 -5.709576599999999919e-02 3.929513400000000239e-02 1.061185218800000030e+01
1.026165822900000002e+01 0.000000000000000000e+00 0.000000000000000000e+00 -5.254159299999999755e-02 1.028560812199999930e+01 0.000000000000000000e+00 -5.761565600000000120e-02 3.965293899999999816e-02 1.070847920599999981e+01
1.029371309799999956e+01 0.000000000000000000e+00 0.000000000000000000e+00 -5.270571999999999757e-02 1.031773780400000007e+01 0.000000000000000000e+00 -5.779563299999999904e-02 3.977680499999999841e-02 1.074192983200000029e+01
1.027142413900000051e+01 0.000000000000000000e+00 0.000000000000000000e+00 7.715662900000000435e-02 1.034847854500000075e+01 0.000000000000000000e+00 -2.356956600000000013e-02 9.997985800000000478e-02 1.070313852099999963e+01
1.011057237200000003e+01 0.000000000000000000e+00 0.000000000000000000e+00 7.594834599999999991e-02 1.018642009699999917e+01 0.000000000000000000e+00 -2.320046300000000103e-02 9.841416100000000000e-02 1.053552605399999997e+01
1.042977571199999964e+01 0.000000000000000000e+00 0.000000000000000000e+00 -5.340238600000000307e-02 1.045411797799999931e+01 0.000000000000000000e+00 -5.855957700000000155e-02 4.030257599999999968e-02 1.088391698899999938e+01
1.022051607300000065e+01 0.000000000000000000e+00 0.000000000000000000e+00 7.677421900000000465e-02 1.029718857599999993e+01 0.000000000000000000e+00 -2.345274799999999896e-02 9.948432899999999635e-02 1.065009075699999919e+01
1.024652694999999980e+01 0.000000000000000000e+00 0.000000000000000000e+00 7.696960599999999597e-02 1.032339458200000060e+01 0.000000000000000000e+00 -2.351243500000000167e-02 9.973751399999999934e-02 1.067719488800000072e+01
1.026251302400000043e+01 0.000000000000000000e+00 0.000000000000000000e+00 7.708969000000000238e-02 1.033950058099999936e+01 0.000000000000000000e+00 -2.354911800000000083e-02 9.989311900000000244e-02 1.069385286700000037e+01
1.026619528600000031e+01 0.000000000000000000e+00 0.000000000000000000e+00 -5.256482400000000305e-02 1.029015576699999990e+01 0.000000000000000000e+00 -5.764112999999999876e-02 3.967047099999999882e-02 1.071321381799999983e+01
1.035805843099999990e+01 0.000000000000000000e+00 0.000000000000000000e+00 -5.303518000000000121e-02 1.038223331300000041e+01 0.000000000000000000e+00 -5.815690999999999916e-02 4.002544699999999872e-02 1.080907693800000047e+01
1.017309529499999954e+01 0.000000000000000000e+00 0.000000000000000000e+00 7.641800399999999771e-02 1.024941205600000060e+01 0.000000000000000000e+00 -2.334393300000000074e-02 9.902274499999999535e-02 1.060067685399999959e+01
1.014666774500000024e+01 0.000000000000000000e+00 0.000000000000000000e+00 -5.195282100000000319e-02 1.017034925799999989e+01 0.000000000000000000e+00 -5.697002400000000105e-02 3.920859499999999886e-02 1.058848171700000051e+01
1.024076360199999947e+01 0.000000000000000000e+00 0.000000000000000000e+00 -5.243460900000000008e-02 1.026466472799999963e+01 0.000000000000000000e+00 -5.749834000000000195e-02 3.957219900000000234e-02 1.068667476799999960e+01
1.022278596399999984e+01 0.000000000000000000e+00 0.000000000000000000e+00 7.679126999999999481e-02 1.029947549499999937e+01 0.000000000000000000e+00 -2.345795700000000150e-02 9.950642399999999610e-02 1.065245605299999987e+01
1.020080447499999998e+01 0.000000000000000000e+00 0.000000000000000000e+00 -5.223001099999999980e-02 1.022461233900000011e+01 0.000000000000000000e+00 -5.727398300000000053e-02 3.941778900000000169e-02 1.064497571000000065e+01
1.028573859599999984e+01 0.000000000000000000e+00 0.000000000000000000e+00 7.726415600000000050e-02 1.036290038699999982e+01 0.000000000000000000e+00 -2.360241299999999917e-02 1.001191909999999963e-01 1.071805462300000045e+01
1.044462333000000065e+01 0.000000000000000000e+00 0.000000000000000000e+00 7.845766199999999746e-02 1.052297704599999939e+01 0.000000000000000000e+00 -2.396700100000000166e-02 1.016657420000000034e-01 1.088361738300000070e+01
1.010566053099999984e+01 0.000000000000000000e+00 0.000000000000000000e+00 7.591145000000000531e-02 1.018147140800000017e+01 0.000000000000000000e+00 -2.318919200000000083e-02 9.836635000000000517e-02 1.053040776499999964e+01
1.025239764300000012e+01 0.000000000000000000e+00 0.000000000000000000e+00 7.701370600000000122e-02 1.032930931599999980e+01 0.000000000000000000e+00 -2.352590599999999921e-02 9.979465799999999442e-02 1.068331232899999961e+01
1.031858717200000086e+01 0.000000000000000000e+00 0.000000000000000000e+00 -5.283307999999999754e-02 1.034266993199999973e+01 0.000000000000000000e+00 -5.793529199999999935e-02 3.987292299999999762e-02 1.076788699099999924e+01
1.032385331599999923e+01 0.000000000000000000e+00 0.000000000000000000e+00 -5.286004400000000186e-02 1.034794836700000076e+01 0.000000000000000000e+00 -5.796486000000000000e-02 3.989327299999999993e-02 1.077338243800000050e+01
1.007062875899999987e+01 0.000000000000000000e+00 0.000000000000000000e+00 7.564829900000000218e-02 1.014617683400000026e+01 0.000000000000000000e+00 -2.310880599999999910e-02 9.802535800000000688e-02 1.049390358600000006e+01
1.022655114300000001e+01 0.000000000000000000e+00 0.000000000000000000e+00 7.681955299999999875e-02 1.030326892000000072e+01 0.000000000000000000e+00 -2.346659699999999876e-02 9.954307299999999581e-02 1.065637948500000043e+01
1.023694154300000037e+01 0.000000000000000000e+00 0.000000000000000000e+00 -5.241503899999999661e-02 1.026083374899999967e+01 0.000000000000000000e+00 -5.747688000000000103e-02 3.955742899999999812e-02 1.068268628699999923e+01
1.033084865400000041e+01 0.000000000000000000e+00 0.000000000000000000e+00 -5.289586100000000235e-02 1.035496003099999918e+01 0.000000000000000000e+00 -5.800413599999999781e-02 3.992030399999999674e-02 1.078068237199999935e+01
1.033539921500000069e+01 0.000000000000000000e+00 0.000000000000000000e+00 -5.291916099999999928e-02 1.035952121200000065e+01 0.000000000000000000e+00 -5.802968599999999699e-02 3.993788799999999778e-02 1.078543107700000014e+01
1.036956084200000028e+01 0.000000000000000000e+00 0.000000000000000000e+00 7.789380899999999441e-02 1.044735145199999948e+01 0.000000000000000000e+00 -2.379475699999999971e-02 1.009350990000000003e-01 1.080539997099999994e+01
1.032480894699999929e+01 0.000000000000000000e+00 0.000000000000000000e+00 -5.286493700000000073e-02 1.034890622900000068e+01 0.000000000000000000e+00 -5.797022500000000023e-02 3.989696499999999951e-02 1.077437968099999921e+01
1.035331814299999920e+01 0.000000000000000000e+00 0.000000000000000000e+00 7.777179800000000309e-02 1.043098690399999917e+01 0.000000000000000000e+00 -2.375748600000000127e-02 1.007769959999999937e-01 1.078847458199999920e+01
1.046169076700000033e+01 0.000000000000000000e+00 0.000000000000000000e+00 7.858586900000000264e-02 1.054017251900000041e+01 0.000000000000000000e+00 -2.400616599999999892e-02 1.018318720000000038e-01 1.090140217399999933e+01
1.037195514699999954e+01 0.000000000000000000e+00 0.000000000000000000e+00 7.791179500000000591e-02 1.044976371899999990e+01 0.000000000000000000e+00 -2.380025200000000091e-02 1.009584050000000011e-01 1.080789490999999991e+01
1.029422903100000042e+01 0.000000000000000000e+00 0.000000000000000000e+00 7.732793400000000095e-02 1.037145451499999993e+01 0.000000000000000000e+00 -2.362189599999999987e-02 1.002018350000000030e-01 1.072690191599999920e+01
1.025467000599999956e+01 0.000000000000000000e+00 0.000000000000000000e+00 7.703077499999999578e-02 1.033159872499999921e+01 0.000000000000000000e+00 -2.353111999999999912e-02 9.981677599999999595e-02 1.068568020100000027e+01
1.028963598700000048e+01 0.000000000000000000e+00 0.000000000000000000e+00 7.729343199999999525e-02 1.036682701600000023e+01 0.000000000000000000e+00 -2.361135600000000001e-02 1.001571279999999980e-01 1.072211582499999949e+01
1.024354645600000069e+01 0.000000000000000000e+00 0.000000000000000000e+00 7.694721799999999778e-02 1.032039172900000068e+01 0.000000000000000000e+00 -2.350559600000000013e-02 9.970850200000000441e-02 1.067408912199999982e+01
1.021132796100000029e+01 0.000000000000000000e+00 0.000000000000000000e+00 7.670520000000000116e-02 1.028793153600000032e+01 0.000000000000000000e+00 -2.343166500000000083e-02 9.939489399999999752e-02 1.064051646300000087e+01
