2.754370000000000207e+00 9.202000000000000457e-02 2.321379999999999999e+00 2.318649999999999878e+00 1.038960999999999935e+01 7.961149999999999949e+00 2.761070000000000135e+00 5.202160000000000117e+00 2.186110000000000220e+00 2.823119999999999852e+00 5.525439999999999685e+00 7.934420000000000250e+00 2.578500000000000236e-01 2.564119999999999955e+00 2.377260000000000151e+00 9.934969999999999857e+00 2.563410000000000188e+00 8.438100000000000378e+00 1.885100000000000109e-01 7.650970000000000049e+00 2.736950000000000216e+00 1.026271999999999984e+01 7.934429999999999872e+00 7.958859999999999602e+00 8.040150000000000574e+00 3.127209999999999823e+00 5.472920000000000229e+00 7.867189999999999905e+00 2.719079999999999941e+00 1.829699999999999938e-01 8.083840000000000359e+00 8.077980000000000160e+00 5.382150000000000212e+00 7.941939999999999777e+00 7.780409999999999826e+00 1.040850999999999971e+01 5.700619999999999798e+00 1.008243000000000045e+01 1.910999999999999921e-01 5.307179999999999787e+00 6.363000000000000600e-02 5.247589999999999755e+00 5.303849999999999731e+00 5.463210000000000122e+00 1.881599999999999939e-01 5.173879999999999590e+00 5.013349999999999973e+00 5.273220000000000240e+00 5.325420000000000265e+00 2.484399999999999942e+00 2.496690000000000076e+00 4.833899999999999864e+00 2.590329999999999799e+00 7.943769999999999776e+00 5.576640000000000263e+00 7.689680000000000071e+00 2.816469999999999807e+00 5.437400000000000233e+00 7.838199999999999612e+00 7.861480000000000246e+00 8.059409999999999741e+00 1.018041000000000018e+01 2.933440000000000047e+00 7.714819999999999567e+00 3.119000000000000106e-01 7.878389999999999560e+00 7.885550000000000281e+00 5.126789999999999736e+00 2.788689999999999891e+00 7.477009999999999934e+00 5.226799999999999891e+00 8.066639999999999588e+00 1.015572000000000052e+01 1.037481000000000009e+01 2.523299999999999987e-01 1.557099999999999873e-01 6.097000000000000197e-01 5.413909999999999556e+00 2.223100000000000076e-01 5.414270000000000138e+00 1.038911000000000051e+01 7.571700000000000097e-01 5.287289999999999601e+00 5.491349999999999731e+00 2.922950000000000159e+00 2.818350000000000133e+00 5.093099999999999739e+00 2.626100000000000101e+00 2.887880000000000003e+00 1.017820999999999998e+01 2.873540000000000205e+00 7.763700000000000045e+00 5.050659999999999705e+00 2.775539999999999896e+00 8.055419999999999803e+00 1.065250999999999948e+01 9.691259999999999764e+00 6.611220000000000319e+00 9.231000000000000316e-01 8.866250000000000853e+00 4.207849999999999646e+00 6.946819999999999773e+00 9.601250000000000284e+00 9.066639999999999588e+00 1.637059999999999960e+00 8.917540000000000688e+00 9.281700000000000728e+00 6.694090000000000096e+00 4.255639999999999645e+00 1.402379999999999960e+00 3.898089999999999833e+00 3.463760000000000172e+00 1.233999999999999986e+00 9.006360000000000809e+00 4.161920000000000286e+00 6.756529999999999703e+00 3.965079999999999938e+00 3.843949999999999978e+00 6.607470000000000176e+00 9.354990000000000805e+00 4.246269999999999989e+00 3.895210000000000061e+00 3.681430000000000202e+00 3.737530000000000019e+00 4.079449999999999577e+00 9.477610000000000312e+00 4.251529999999999809e+00 9.092930000000000845e+00 4.388560000000000016e+00 4.190620000000000012e+00 9.165440000000000254e+00 9.872109999999999275e+00 8.838459999999999539e+00 3.789870000000000072e+00 1.573280000000000012e+00 8.933550000000000324e+00 1.654020000000000046e+00 6.698279999999999568e+00 7.081240000000000201e+00 6.607330000000000148e+00 1.233279999999999932e+00 9.544200000000000017e+00 6.846009999999999707e+00 6.310520000000000351e+00 9.408369999999999678e+00 4.686060000000000336e+00 4.292010000000000325e+00 8.977470000000000283e+00 3.830849999999999866e+00 9.646589999999999776e+00 9.516949999999999577e+00 9.502869999999999706e+00 4.160009999999999764e+00 9.722569999999999268e+00 9.091229999999999478e+00 9.609439999999999316e+00 4.088070000000000093e+00 1.354789999999999939e+00 1.178339999999999943e+00 4.460440000000000182e+00 1.662160000000000082e+00 6.483200000000000074e+00 4.459340000000000082e+00 6.499229999999999841e+00 1.566889999999999894e+00 4.344879999999999853e+00 6.407210000000000072e+00 6.807640000000000136e+00 1.456299999999999928e+00 1.440050000000000052e+00 3.731739999999999835e+00 1.045260000000000078e+00 1.390060000000000073e+00 9.206220000000000070e+00 1.602379999999999916e+00 6.426969999999999850e+00 3.801229999999999887e+00 1.406639999999999890e+00 6.445839999999999570e+00 9.311239999999999739e+00 6.751929999999999765e+00 8.687290000000000845e+00 4.123249999999999638e+00 6.080930000000000391e+00 9.218300000000000383e-01 8.651930000000000121e+00 6.299170000000000158e+00 6.031049999999999578e+00 3.836660000000000181e+00 6.626879999999999882e+00 6.284639999999999560e+00 9.426040000000000418e+00 6.235710000000000086e+00 4.281520000000000437e+00 1.699650000000000105e+00 5.998719999999999608e+00 4.574119999999999742e+00 6.975380000000000358e+00 8.931279999999999220e+00 1.278610000000000024e+00 1.856919999999999904e+00 7.026430000000000398e+00 6.963490000000000180e+00 6.904399999999999871e+00 9.145459999999999923e+00 1.901429999999999954e+00 4.259369999999999656e+00 8.475640000000000285e+00 1.080910000000000037e+00 1.004271999999999920e+01 9.002449999999999619e+00 6.881240000000000023e+00 3.747860000000000191e+00 9.098829999999999529e+00 6.604949999999999655e+00 9.160840000000000316e+00 6.767710000000000115e+00 3.516859999999999875e+00 3.995429999999999815e+00 6.438349999999999795e+00 3.564700000000000202e+00 9.432079999999999131e+00 7.139029999999999987e+00 9.242549999999999599e+00 1.070680000000000076e+00 7.004889999999999617e+00 8.714270000000000849e+00 8.848770000000000024e+00 1.299379999999999979e+00 1.457610000000000072e+00 1.108510000000000106e+00 1.926299999999999901e+00 1.502510000000000012e+00 6.410120000000000040e+00 1.806200000000000028e+00 6.838049999999999962e+00 1.275490000000000013e+00 1.795570000000000110e+00 6.798580000000000290e+00 6.795930000000000248e+00 1.870589999999999975e+00 3.979859999999999953e+00 3.590040000000000120e+00 1.190220000000000056e+00 3.701169999999999849e+00 9.139129999999999754e+00 1.984539999999999971e+00 9.174870000000000303e+00 3.569749999999999979e+00 1.699270000000000058e+00 8.937419999999999476e+00 9.124029999999999418e+00 9.368400000000000061e-01 4.322000000000000064e+00 1.012340000000000018e+00 1.527779999999999916e+00 3.932850000000000179e+00 6.437409999999999854e+00 1.530289999999999928e+00 9.383620000000000516e+00 1.123890000000000056e+00 1.265740000000000087e+00 9.459789999999999921e+00 6.601309999999999789e+00 3.670819999999999972e+00 3.933769999999999989e+00 8.404500000000000304e-01 3.791739999999999888e+00 3.930379999999999985e+00 6.472000000000000419e+00 3.848829999999999973e+00 8.699619999999999465e+00 1.599879999999999969e+00 4.056849999999999845e+00 9.199769999999999115e+00 6.939300000000000246e+00
2.782820000000000071e+00 2.810500000000000220e-01 2.681639999999999802e+00 2.595559999999999867e+00 1.431300000000000072e-01 8.034700000000000841e+00 2.954860000000000042e+00 5.671780000000000044e+00 2.636870000000000047e+00 2.478390000000000093e+00 5.406729999999999592e+00 8.074149999999999494e+00 3.202900000000000191e-01 2.608460000000000001e+00 2.891270000000000007e+00 1.022052000000000049e+01 2.463420000000000165e+00 8.325910000000000366e+00 3.504599999999999937e-01 8.047219999999999374e+00 2.635429999999999939e+00 9.574000000000000565e-02 8.015019999999999811e+00 8.193410000000000082e+00 7.641840000000000188e+00 2.900959999999999983e+00 5.372760000000000424e+00 8.092829999999999302e+00 2.899620000000000086e+00 1.766999999999999960e-01 7.920040000000000191e+00 7.891919999999999824e+00 4.764560000000000350e+00 7.495390000000000441e+00 7.555629999999999846e+00 1.013455000000000084e+01 5.309689999999999799e+00 1.043472000000000044e+01 1.039793000000000056e+01 5.160110000000000419e+00 4.319399999999999906e-01 5.153380000000000294e+00 5.590880000000000294e+00 4.641939999999999955e+00 2.412999999999999867e-02 5.406769999999999854e+00 5.374900000000000233e+00 5.590469999999999828e+00 5.669819999999999638e+00 2.710399999999999920e+00 2.342410000000000103e+00 4.925290000000000390e+00 2.693270000000000053e+00 8.053050000000000708e+00 5.845119999999999649e+00 7.797579999999999956e+00 2.298869999999999969e+00 4.915680000000000049e+00 7.718670000000000364e+00 7.684219999999999828e+00 8.096289999999999765e+00 3.530200000000000005e-01 2.428430000000000089e+00 7.819189999999999863e+00 1.022261999999999915e+01 7.689440000000000275e+00 7.872359999999999580e+00 5.015049999999999564e+00 2.725070000000000103e+00 7.949629999999999974e+00 5.372390000000000221e+00 8.013159999999999172e+00 1.403099999999999903e-01 1.004359000000000002e+01 1.042642999999999986e+01 4.764999999999999791e-02 2.515200000000000213e-01 5.618929999999999758e+00 1.783599999999999908e-01 5.672139999999999738e+00 4.150000000000000216e-02 4.551000000000000184e-02 5.013510000000000133e+00 5.132480000000000153e+00 2.800499999999999989e+00 3.141370000000000218e+00 5.390819999999999723e+00 2.901429999999999954e+00 2.610959999999999948e+00 1.048000000000000043e-01 3.041859999999999786e+00 8.350609999999999644e+00 5.157650000000000290e+00 3.055149999999999810e+00 7.825210000000000221e+00 4.701000000000000317e-02 9.236850000000000449e+00 4.350799999999999557e+00 1.463389999999999969e+00 8.803979999999999251e+00 1.420490000000000030e+00 6.793529999999999625e+00 9.493370000000000530e+00 9.576599999999999113e+00 1.375580000000000025e+00 9.042880000000000251e+00 9.200139999999999318e+00 6.305170000000000385e+00 4.113610000000000433e+00 1.932330000000000103e+00 4.333120000000000083e+00 3.719770000000000021e+00 1.497260000000000035e+00 9.459550000000000125e+00 6.440590000000000259e+00 6.381829999999999892e+00 3.921749999999999847e+00 3.498369999999999980e+00 6.436020000000000074e+00 9.380169999999999675e+00 3.613609999999999989e+00 4.667900000000000382e+00 4.115929999999999644e+00 3.921980000000000022e+00 3.974629999999999885e+00 9.534919999999999618e+00 4.128499999999999837e+00 9.378180000000000405e+00 3.836030000000000051e+00 3.921190000000000175e+00 9.056599999999999540e+00 9.275449999999999307e+00 9.091160000000000352e+00 1.081020000000000092e+00 4.187969999999999970e+00 9.360429999999999140e+00 1.535020000000000051e+00 9.799739999999999895e+00 9.611390000000000100e+00 7.313850000000000406e+00 1.276380000000000070e+00 9.084580000000000766e+00 3.869250000000000078e+00 6.596560000000000201e+00 8.967719999999999914e+00 3.806569999999999787e+00 4.011969999999999814e+00 9.244479999999999364e+00 4.245899999999999785e+00 9.652039999999999509e+00 9.700540000000000163e+00 8.736810000000000187e+00 3.924080000000000013e+00 9.024210000000000065e+00 9.308799999999999741e+00 9.118949999999999889e+00 4.277919999999999945e+00 1.258320000000000105e+00 1.616489999999999982e+00 3.573920000000000208e+00 1.549509999999999943e+00 6.968300000000000161e+00 4.514759999999999884e+00 6.332029999999999603e+00 1.271079999999999988e+00 3.090259999999999785e+00 6.895199999999999996e+00 6.616889999999999716e+00 1.094880000000000075e+00 2.135450000000000070e+00 4.811639999999999695e+00 1.657799999999999940e+00 1.167399999999999993e+00 1.009472000000000058e+01 2.608629999999999782e+00 7.351479999999999571e+00 3.590869999999999784e+00 1.129629999999999912e+00 6.343980000000000175e+00 8.794180000000000774e+00 6.457270000000000287e+00 1.102289999999999992e+00 3.436370000000000147e+00 6.202519999999999811e+00 9.162500000000000089e-01 8.609389999999999432e+00 6.492370000000000196e+00 6.630130000000000301e+00 6.718670000000000364e+00 6.381389999999999674e+00 6.080400000000000027e+00 9.486729999999999663e+00 6.555089999999999861e+00 1.360980000000000079e+00 9.649199999999999999e-01 6.721149999999999736e+00 4.160370000000000346e+00 6.647910000000000430e+00 6.591820000000000235e+00 8.729260000000000019e+00 4.712799999999999767e-01 6.509409999999999918e+00 9.339470000000000383e+00 5.703479999999999883e+00 6.262019999999999698e+00 1.802499999999999991e+00 6.250040000000000262e+00 9.132780000000000342e+00 1.837960000000000038e+00 1.636109999999999953e+00 9.348760000000000403e+00 6.544200000000000017e+00 4.101659999999999862e+00 9.187659999999999272e+00 6.802590000000000359e+00 9.404560000000000031e+00 6.450899999999999856e+00 3.909569999999999990e+00 3.991560000000000219e+00 6.584509999999999863e+00 3.541370000000000129e+00 9.327420000000000044e+00 7.318909999999999805e+00 9.087749999999999773e+00 3.288920000000000066e+00 6.469190000000000218e+00 8.619080000000000297e+00 8.646580000000000155e+00 1.637550000000000061e+00 1.891319999999999890e+00 1.762960000000000083e+00 9.115900000000000114e-01 1.112619999999999942e+00 7.166509999999999714e+00 1.619329999999999936e+00 6.631899999999999906e+00 1.016140000000000043e+00 9.234849999999999781e+00 6.288240000000000052e+00 6.791249999999999787e+00 1.288089999999999957e+00 4.367720000000000269e+00 3.411439999999999806e+00 1.600100000000000078e+00 3.203759999999999941e+00 8.277530000000000499e+00 1.775509999999999922e+00 1.008083000000000062e+01 4.098230000000000040e+00 1.241570000000000062e+00 9.112170000000000769e+00 9.218930000000000291e+00 1.421140000000000070e+00 4.005589999999999762e+00 3.543899999999999828e-01 1.555609999999999937e+00 4.864969999999999573e+00 6.380569999999999631e+00 1.742949999999999999e+00 9.224439999999999529e+00 1.104090000000000016e+00 1.579369999999999941e+00 9.356939999999999813e+00 6.749929999999999986e+00 4.200510000000000410e+00 4.057450000000000223e+00 1.383550000000000058e+00 4.357339999999999769e+00 3.977199999999999847e+00 6.609829999999999650e+00 4.308690000000000353e+00 8.955519999999999925e+00 1.480820000000000025e+00 4.135959999999999859e+00 9.593370000000000175e+00 6.608730000000000437e+00
2.769610000000000127e+00 1.838200000000000112e-01 2.741260000000000030e+00 2.815399999999999903e+00 2.014900000000000024e-01 8.123620000000000729e+00 2.828110000000000124e+00 5.135729999999999684e+00 2.616649999999999920e+00 3.026409999999999823e+00 5.363959999999999617e+00 7.986430000000000362e+00 9.639000000000000346e-02 2.857619999999999827e+00 2.646189999999999820e+00 2.733900000000000219e-01 2.406569999999999876e+00 8.245480000000000587e+00 1.228299999999999947e-01 8.264829999999999899e+00 2.685259999999999980e+00 3.155700000000000172e-01 7.936810000000000365e+00 7.783890000000000420e+00 7.799890000000000434e+00 2.523930000000000007e+00 5.114899999999999558e+00 8.030939999999999301e+00 2.738669999999999938e+00 1.048100000000000004e-01 8.017409999999999926e+00 7.923409999999999620e+00 5.225500000000000256e+00 7.655920000000000059e+00 8.323479999999999990e+00 1.050608000000000075e+01 5.239939999999999820e+00 3.760600000000000054e-01 1.077477999999999980e+01 5.289139999999999731e+00 1.048770000000000024e+01 5.542670000000000208e+00 5.161310000000000286e+00 5.678939999999999877e+00 2.186299999999999910e-01 5.635340000000000238e+00 5.098650000000000126e+00 5.428090000000000082e+00 5.386680000000000135e+00 2.912720000000000198e+00 2.538450000000000095e+00 5.516230000000000189e+00 2.738579999999999792e+00 8.258670000000000400e+00 5.041080000000000005e+00 7.728970000000000340e+00 2.694209999999999994e+00 5.252919999999999590e+00 7.856539999999999857e+00 7.992280000000000051e+00 7.932380000000000209e+00 1.964500000000000135e-01 2.574870000000000214e+00 8.147059999999999746e+00 1.044389999999999930e+01 7.830750000000000099e+00 7.973519999999999719e+00 5.614530000000000243e+00 2.716499999999999915e+00 8.303219999999999601e+00 4.957440000000000069e+00 8.302110000000000767e+00 1.877999999999999947e-01 1.050459999999999994e+01 1.061167999999999978e+01 3.457100000000000173e-01 1.158099999999999963e-01 5.634820000000000384e+00 1.171100000000000058e-01 5.160120000000000040e+00 2.864700000000000024e-01 2.020500000000000074e-01 5.091109999999999580e+00 5.569729999999999848e+00 2.844259999999999788e+00 2.627270000000000216e+00 5.379340000000000011e+00 2.770610000000000017e+00 2.685430000000000206e+00 1.043707999999999991e+01 2.431259999999999977e+00 7.910289999999999822e+00 5.148329999999999629e+00 2.413159999999999972e+00 8.182150000000000034e+00 1.017306999999999917e+01 6.736369999999999969e+00 4.190949999999999953e+00 1.506930000000000103e+00 9.644590000000000884e+00 3.912900000000000045e+00 6.896950000000000358e+00 9.587780000000000413e+00 9.521150000000000446e+00 1.168570000000000109e+00 9.603320000000000078e+00 8.953150000000000830e+00 6.483229999999999826e+00 3.901289999999999925e+00 1.954460000000000086e+00 3.793390000000000040e+00 4.111570000000000391e+00 1.723419999999999952e+00 9.420629999999999171e+00 3.240650000000000031e+00 7.012830000000000119e+00 3.173669999999999991e+00 3.776380000000000070e+00 7.201509999999999856e+00 8.895640000000000214e+00 4.281480000000000175e+00 4.227400000000000269e+00 4.174520000000000231e+00 4.740590000000000082e+00 4.408859999999999779e+00 9.660399999999999210e+00 4.007769999999999833e+00 9.189690000000000580e+00 4.447980000000000267e+00 3.669690000000000119e+00 9.883369999999999322e+00 1.007638000000000034e+01 9.917080000000000339e+00 1.708520000000000039e+00 7.741799999999999793e-01 9.443379999999999441e+00 1.158849999999999936e+00 6.856250000000000178e+00 9.249520000000000408e+00 4.093090000000000117e+00 1.510639999999999983e+00 9.437340000000000728e+00 6.414139999999999731e+00 6.632399999999999629e+00 9.136870000000000047e+00 4.455409999999999648e+00 4.256499999999999950e+00 9.831509999999999749e+00 3.880710000000000104e+00 9.573610000000000397e+00 9.288940000000000197e+00 9.168110000000000426e+00 3.889670000000000183e+00 9.241730000000000445e+00 8.962659999999999627e+00 9.333849999999999980e+00 3.929870000000000196e+00 1.440970000000000084e+00 1.160539999999999905e+00 4.121279999999999610e+00 1.443729999999999958e+00 6.499329999999999607e+00 3.614889999999999937e+00 6.706380000000000230e+00 7.560099999999999598e-01 4.233019999999999783e+00 6.587609999999999744e+00 6.256750000000000256e+00 8.173599999999999755e-01 1.861070000000000002e+00 4.985000000000000320e+00 1.544890000000000096e+00 1.265430000000000055e+00 9.726839999999999264e+00 7.154800000000000049e-01 7.140590000000000437e+00 4.488710000000000200e+00 1.533660000000000023e+00 6.427139999999999631e+00 9.605800000000000338e+00 6.491509999999999891e+00 1.183640000000000025e+00 4.318620000000000125e+00 6.631890000000000285e+00 1.328950000000000076e+00 7.137050000000000338e+00 7.051459999999999617e+00 6.479639999999999844e+00 6.170880000000000365e+00 6.442309999999999981e+00 7.244290000000000340e+00 9.332349999999999923e+00 6.667959999999999887e+00 1.741600000000000037e+00 1.391280000000000072e+00 6.800869999999999749e+00 3.987600000000000033e+00 6.393340000000000245e+00 6.768979999999999997e+00 9.733019999999999783e+00 1.328359999999999985e+00 7.179630000000000400e+00 9.429550000000000765e+00 6.398570000000000313e+00 8.895530000000000825e+00 1.751560000000000006e+00 3.749979999999999869e+00 9.133760000000000545e+00 1.602559999999999985e+00 9.221790000000000376e+00 8.794510000000000716e+00 7.100740000000000052e+00 3.368500000000000050e+00 8.806290000000000617e+00 6.440319999999999823e+00 9.817880000000000607e+00 6.860420000000000407e+00 3.935630000000000184e+00 3.913219999999999921e+00 6.926009999999999778e+00 4.209240000000000315e+00 9.406530000000000058e+00 6.498029999999999973e+00 8.686790000000000234e+00 4.019309999999999938e+00 6.531489999999999796e+00 9.696719999999999118e+00 9.202550000000000452e+00 1.557469999999999910e+00 1.725910000000000055e+00 2.210799999999999876e+00 1.703810000000000047e+00 1.088189999999999991e+00 6.972850000000000215e+00 6.604799999999999560e-01 6.642450000000000188e+00 1.701789999999999914e+00 1.676209999999999978e+00 6.859989999999999810e+00 6.820820000000000327e+00 1.441009999999999902e+00 4.135539999999999772e+00 3.807040000000000202e+00 2.015719999999999956e+00 3.680629999999999846e+00 8.908649999999999736e+00 1.280419999999999892e+00 9.672159999999999869e+00 3.536230000000000206e+00 1.330319999999999947e+00 9.457380000000000564e+00 8.805899999999999395e+00 1.672989999999999977e+00 4.123020000000000351e+00 9.917200000000000459e-01 1.863310000000000022e+00 4.195190000000000197e+00 6.428880000000000372e+00 1.452760000000000051e+00 9.000299999999999301e+00 7.616199999999999637e-01 1.958099999999999952e+00 9.415779999999999816e+00 6.301110000000000433e+00 4.152989999999999959e+00 4.202149999999999608e+00 1.352659999999999973e+00 4.360920000000000130e+00 4.097229999999999706e+00 7.180530000000000079e+00 4.172939999999999650e+00 9.447269999999999612e+00 1.580699999999999994e+00 4.389759999999999884e+00 9.446880000000000166e+00 7.373310000000000031e+00
2.930309999999999970e+00 1.011152000000000051e+01 2.805079999999999796e+00 2.759570000000000078e+00 1.734499999999999931e-01 7.373240000000000016e+00 2.697280000000000122e+00 5.008860000000000312e+00 2.646830000000000016e+00 2.589010000000000034e+00 5.170309999999999739e+00 7.836579999999999657e+00 3.708000000000000185e-02 2.508420000000000094e+00 2.425609999999999822e+00 1.027399999999999980e-01 2.616449999999999942e+00 7.791210000000000413e+00 5.269999999999999685e-02 7.612969999999999793e+00 2.388230000000000075e+00 1.712899999999999978e-01 7.849330000000000140e+00 7.596580000000000332e+00 7.872410000000000352e+00 2.593719999999999803e+00 5.408430000000000071e+00 7.664159999999999862e+00 2.496410000000000018e+00 1.036332999999999949e+01 7.869489999999999874e+00 7.597400000000000375e+00 4.953969999999999985e+00 7.595860000000000056e+00 7.705790000000000362e+00 1.038532999999999973e+01 5.064230000000000231e+00 1.020551999999999992e+01 1.045503000000000071e+01 5.265830000000000233e+00 3.232700000000000018e-01 5.364709999999999646e+00 5.108220000000000205e+00 5.247309999999999697e+00 1.033243000000000045e+01 5.094839999999999591e+00 5.209380000000000344e+00 5.352879999999999860e+00 5.088479999999999670e+00 2.634399999999999853e+00 2.340730000000000199e+00 5.367840000000000167e+00 2.827440000000000175e+00 7.814750000000000085e+00 5.187929999999999708e+00 7.708029999999999937e+00 2.542370000000000019e+00 5.211969999999999992e+00 7.776019999999999932e+00 7.604790000000000383e+00 7.524180000000000312e+00 2.360700000000000021e-01 2.718960000000000043e+00 7.543859999999999566e+00 9.386999999999999511e-02 7.734670000000000378e+00 7.689510000000000289e+00 5.059929999999999595e+00 2.810950000000000060e+00 7.910849999999999937e+00 5.145900000000000141e+00 7.964249999999999829e+00 1.306200000000000139e-01 1.009371999999999936e+01 1.375999999999999966e-02 3.209699999999999775e-01 1.017722000000000016e+01 5.114880000000000315e+00 9.977610000000000312e+00 5.075779999999999959e+00 6.557999999999999940e-02 1.024299999999999933e-01 5.072739999999999583e+00 5.353480000000000238e+00 2.791589999999999794e+00 2.596420000000000172e+00 4.985219999999999985e+00 2.606009999999999938e+00 2.568709999999999827e+00 1.018063000000000073e+01 2.794490000000000141e+00 7.518930000000000113e+00 4.969299999999999606e+00 2.463470000000000049e+00 7.815669999999999895e+00 1.041553000000000040e+01 8.587199999999999278e+00 3.582559999999999967e+00 1.241910000000000069e+00 8.848039999999999239e+00 3.869159999999999933e+00 6.569490000000000052e+00 9.002069999999999794e+00 8.756330000000000169e+00 7.754499999999999726e-01 9.003140000000000143e+00 9.146209999999999951e+00 6.173589999999999911e+00 3.984989999999999810e+00 1.242080000000000073e+00 4.112849999999999895e+00 4.353159999999999918e+00 1.762790000000000079e+00 9.333899999999999864e+00 4.354140000000000121e+00 6.334559999999999746e+00 3.923789999999999889e+00 3.829039999999999999e+00 6.601600000000000357e+00 9.192700000000000315e+00 3.967950000000000088e+00 3.734719999999999818e+00 3.680330000000000101e+00 3.853610000000000202e+00 4.193590000000000373e+00 8.786680000000000490e+00 4.052730000000000388e+00 8.788740000000000663e+00 3.717360000000000220e+00 3.855109999999999815e+00 9.118420000000000414e+00 8.772539999999999338e+00 8.872550000000000381e+00 1.184930000000000039e+00 1.404079999999999995e+00 9.045249999999999346e+00 1.318540000000000045e+00 6.541419999999999568e+00 8.664110000000000866e+00 6.168859999999999566e+00 1.320750000000000091e+00 8.730669999999999931e+00 6.478480000000000238e+00 6.569720000000000226e+00 9.389189999999999259e+00 3.790299999999999780e+00 3.791850000000000165e+00 9.184169999999999945e+00 3.971680000000000099e+00 8.938610000000000610e+00 8.966490000000000293e+00 8.958759999999999835e+00 3.406940000000000079e+00 9.157930000000000348e+00 9.067970000000000752e+00 8.923870000000000857e+00 3.687370000000000037e+00 1.252620000000000067e+00 1.566780000000000062e+00 4.219879999999999853e+00 1.320019999999999971e+00 6.723080000000000389e+00 3.911010000000000097e+00 6.334880000000000067e+00 1.343150000000000066e+00 3.641070000000000029e+00 6.516720000000000290e+00 6.571340000000000181e+00 1.426399999999999890e+00 1.440660000000000052e+00 3.602069999999999883e+00 1.654649999999999954e+00 1.626090000000000035e+00 8.616669999999999163e+00 1.966069999999999984e+00 6.680889999999999773e+00 3.317930000000000046e+00 1.380419999999999980e+00 6.716610000000000191e+00 8.818899999999999295e+00 6.558379999999999654e+00 1.843369999999999953e+00 3.737629999999999786e+00 6.332010000000000360e+00 1.714290000000000092e+00 9.703600000000000003e-01 6.716129999999999711e+00 6.637950000000000017e+00 3.509939999999999838e+00 6.385189999999999699e+00 6.520240000000000258e+00 8.736449999999999605e+00 6.019169999999999909e+00 4.472430000000000128e+00 1.716960000000000042e+00 6.222870000000000346e+00 4.373300000000000409e+00 6.858450000000000379e+00 6.505760000000000431e+00 9.083830000000000737e+00 1.418250000000000011e+00 6.015880000000000116e+00 7.009179999999999744e+00 5.695420000000000371e+00 9.116250000000000853e+00 1.248909999999999965e+00 3.973139999999999894e+00 9.002750000000000696e+00 1.447580000000000089e+00 9.149919999999999831e+00 9.298249999999999460e+00 6.381649999999999601e+00 3.924739999999999895e+00 8.867449999999999832e+00 6.539970000000000283e+00 9.237230000000000274e+00 6.920230000000000103e+00 4.189230000000000231e+00 4.461809999999999832e+00 6.462130000000000152e+00 3.912889999999999979e+00 9.414600000000000080e+00 6.554820000000000313e+00 9.306309999999999860e+00 4.131759999999999877e+00 6.386709999999999887e+00 9.120350000000000179e+00 9.201050000000000395e+00 1.125369999999999981e+00 1.776259999999999950e+00 6.601399999999999491e-01 1.449379999999999891e+00 1.311260000000000092e+00 6.180659999999999599e+00 9.831600000000000339e-01 6.572079999999999700e+00 6.755999999999999783e-01 1.190299999999999914e+00 6.610820000000000363e+00 5.857800000000000118e+00 1.833490000000000064e+00 4.199950000000000294e+00 4.591400000000000148e+00 1.575399999999999912e+00 4.403480000000000061e+00 9.776830000000000354e+00 1.637289999999999912e+00 9.011020000000000252e+00 4.154600000000000293e+00 1.470879999999999965e+00 9.189019999999999300e+00 9.399540000000000006e+00 9.893300000000000427e-01 4.281520000000000437e+00 1.858430000000000026e+00 1.069069999999999965e+00 4.262800000000000367e+00 6.990140000000000242e+00 1.253360000000000030e+00 9.359799999999999898e+00 1.510860000000000092e+00 1.483079999999999954e+00 9.026229999999999976e+00 6.819219999999999615e+00 3.887280000000000069e+00 3.770220000000000127e+00 1.030699999999999950e+00 3.794480000000000075e+00 3.780100000000000016e+00 6.413160000000000416e+00 3.919290000000000163e+00 8.778829999999999245e+00 1.127110000000000056e+00 4.192590000000000039e+00 9.072110000000000340e+00 6.221359999999999779e+00