-6.499999999999999702e-03 2.613840000000000163e+00 2.771760000000000002e+00 4.744000000000000300e-02 2.748839999999999950e+00 7.811130000000000351e+00 9.955989999999999895e+00 7.735369999999999635e+00 2.756369999999999987e+00 9.840049999999999741e+00 7.614469999999999850e+00 7.740210000000000257e+00 4.974050000000000082e+00 2.701839999999999797e+00 2.909429999999999961e+00 5.259999999999999787e+00 2.552669999999999995e+00 7.931169999999999831e+00 4.939759999999999707e+00 7.998359999999999914e+00 2.667199999999999793e+00 5.197519999999999918e+00 7.520699999999999719e+00 7.730839999999999712e+00 2.297419999999999796e+00 1.009736999999999973e+01 2.369040000000000035e+00 2.648670000000000080e+00 2.246799999999999908e-01 7.713870000000000005e+00 2.568210000000000104e+00 5.300880000000000258e+00 2.636140000000000150e+00 2.424360000000000070e+00 5.157339999999999591e+00 7.803069999999999951e+00 7.795239999999999725e+00 2.648499999999999743e-01 2.680930000000000035e+00 7.390539999999999665e+00 1.014716999999999913e+01 7.919240000000000279e+00 7.471040000000000347e+00 5.250110000000000277e+00 2.471119999999999983e+00 7.653240000000000265e+00 5.230809999999999960e+00 7.964629999999999654e+00 2.530299999999999994e+00 2.520340000000000025e+00 5.133549999999999613e+00 2.681810000000000027e+00 2.762010000000000076e+00 1.029983000000000004e+01 2.315129999999999910e+00 7.717060000000000031e+00 5.359119999999999884e+00 2.444789999999999797e+00 7.651500000000000412e+00 1.032052999999999976e+01 7.532499999999999751e+00 2.626160000000000050e+00 5.205510000000000304e+00 7.563150000000000261e+00 2.735189999999999788e+00 1.525100000000000067e-01 7.464140000000000441e+00 7.619290000000000340e+00 5.453750000000000320e+00 7.586409999999999876e+00 7.715290000000000425e+00 2.563300000000000023e-01 -2.959999999999999958e-03 1.012276999999999916e+01 5.041199999999999903e+00 1.014741000000000071e+01 -1.090000000000000040e-03 1.042342999999999975e+01 9.964719999999999800e+00 5.230100000000000193e+00 5.273019999999999818e+00 9.711000000000000187e-02 5.212519999999999598e+00 1.030813000000000024e+01 5.055130000000000123e+00 1.011106999999999978e+01 5.061040000000000205e+00 5.014929999999999666e+00 2.787200000000000233e-01 1.068000000000000060e-01 5.093479999999999563e+00 5.246170000000000222e+00 5.171949999999999825e+00 4.912029999999999674e+00 5.151419999999999888e+00 1.130099999999999993e-01 3.609519999999999840e+00 3.867609999999999992e+00 3.911950000000000038e+00 3.566149999999999931e+00 3.811459999999999848e+00 8.978719999999999146e+00 3.261589999999999989e+00 8.776920000000000499e+00 3.621750000000000025e+00 3.841950000000000198e+00 8.605180000000000717e+00 9.032339999999999591e+00 8.483660000000000423e+00 3.637589999999999879e+00 3.382950000000000124e+00 8.510249999999999204e+00 3.553949999999999942e+00 8.788800000000000168e+00 8.698290000000000077e+00 8.792980000000000018e+00 3.941009999999999902e+00 8.662839999999999208e+00 8.589800000000000324e+00 8.880280000000000840e+00 3.839599999999999902e+00 1.577339999999999964e+00 1.205430000000000001e+00 4.003730000000000011e+00 1.368330000000000046e+00 6.452510000000000190e+00 3.975449999999999928e+00 6.572779999999999845e+00 1.652039999999999953e+00 3.895880000000000010e+00 6.307520000000000238e+00 7.157720000000000304e+00 8.615399999999999281e+00 1.770010000000000083e+00 1.552370000000000028e+00 8.499209999999999710e+00 1.352759999999999962e+00 6.842730000000000423e+00 8.600640000000000285e+00 6.580879999999999619e+00 1.467680000000000096e+00 8.868550000000000821e+00 6.392640000000000100e+00 6.616229999999999833e+00 3.707590000000000163e+00 1.141350000000000087e+00 3.908049999999999802e+00 4.008910000000000196e+00 1.089900000000000091e+00 9.066200000000000259e+00 3.398670000000000080e+00 6.365910000000000402e+00 4.275739999999999874e+00 3.413800000000000168e+00 6.005160000000000053e+00 9.604269999999999641e+00 9.063169999999999504e+00 1.153059999999999974e+00 4.151670000000000194e+00 8.674220000000000041e+00 8.727800000000000002e-01 9.548999999999999488e+00 8.378989999999999938e+00 6.370569999999999844e+00 4.224169999999999980e+00 8.727510000000000545e+00 6.257699999999999818e+00 9.330189999999999984e+00 3.586300000000000043e+00 4.041529999999999845e+00 1.145019999999999927e+00 3.924069999999999947e+00 3.708549999999999791e+00 6.442949999999999733e+00 3.579709999999999948e+00 9.221249999999999503e+00 1.138719999999999954e+00 3.956249999999999822e+00 8.757020000000000692e+00 6.305690000000000239e+00 8.435330000000000439e+00 4.339909999999999712e+00 6.321900000000000297e-01 9.154690000000000438e+00 3.696709999999999940e+00 6.060209999999999653e+00 8.908680000000000376e+00 9.366529999999999134e+00 1.573639999999999928e+00 8.933320000000000149e+00 8.912959999999999994e+00 6.490479999999999805e+00 1.233049999999999979e+00 1.211950000000000083e+00 3.660369999999999902e+00 1.316780000000000062e+00 1.544010000000000105e+00 8.798470000000000013e+00 9.377499999999999725e-01 6.286520000000000330e+00 3.292110000000000092e+00 1.069669999999999899e+00 6.229040000000000354e+00 8.762090000000000600e+00 6.332629999999999981e+00 1.354680000000000106e+00 3.887290000000000134e+00 6.403710000000000235e+00 1.470839999999999925e+00 9.029849999999999710e+00 6.127449999999999619e+00 6.398139999999999716e+00 3.683370000000000033e+00 6.153389999999999915e+00 6.534379999999999633e+00 9.177160000000000650e+00 1.021519999999999984e+00 3.925089999999999968e+00 1.597029999999999950e+00 1.451480000000000103e+00 3.662129999999999885e+00 6.893530000000000157e+00 1.018880000000000008e+00 8.439809999999999590e+00 1.591960000000000042e+00 1.464089999999999892e+00 8.625220000000000553e+00 7.025699999999999612e+00 6.172310000000000407e+00 3.547600000000000087e+00 1.437889999999999890e+00 6.505219999999999558e+00 3.897780000000000022e+00 6.698599999999999888e+00 6.071509999999999962e+00 9.737949999999999662e+00 1.638959999999999972e+00 6.278050000000000352e+00 9.256479999999999819e+00 6.605789999999999829e+00 1.100610000000000088e+00 3.893299999999999983e+00 4.233329999999999593e+00 8.889299999999999979e-01 3.703050000000000175e+00 9.303050000000000708e+00 9.229899999999999771e-01 8.589850000000000207e+00 4.208140000000000214e+00 1.377850000000000019e+00 9.151590000000000558e+00 9.381550000000000722e+00 6.097059999999999924e+00 3.940589999999999815e+00 4.184980000000000366e+00 6.244110000000000049e+00 3.859230000000000160e+00 9.425440000000000040e+00 6.197219999999999729e+00 8.634389999999999787e+00 4.222409999999999997e+00 6.329069999999999752e+00 9.050589999999999691e+00 9.379479999999999151e+00 1.279570000000000096e+00 1.304929999999999923e+00 1.285379999999999967e+00 1.184309999999999974e+00 9.133900000000000352e-01 6.356620000000000381e+00 1.740990000000000038e+00 5.958770000000000344e+00 7.926699999999999857e-01 1.261050000000000004e+00 6.222139999999999560e+00 6.319510000000000183e+00
1.491999999999999993e-01 2.563369999999999926e+00 2.643299999999999983e+00 1.004255000000000031e+01 2.721740000000000048e+00 7.824830000000000396e+00 9.948109999999999786e+00 7.565059999999999896e+00 2.700359999999999872e+00 9.898110000000000852e+00 7.587609999999999744e+00 7.748990000000000045e+00 5.083350000000000257e+00 2.533859999999999779e+00 2.623180000000000067e+00 5.220069999999999766e+00 2.631159999999999943e+00 7.806600000000000428e+00 5.080910000000000259e+00 7.595579999999999998e+00 2.624499999999999833e+00 4.955949999999999633e+00 7.724840000000000373e+00 7.692619999999999791e+00 2.350830000000000197e+00 1.011055999999999955e+01 2.591479999999999784e+00 2.391399999999999970e+00 2.126800000000000079e-01 7.877139999999999809e+00 2.621649999999999814e+00 5.072960000000000136e+00 2.583849999999999980e+00 2.507050000000000001e+00 5.165759999999999685e+00 7.852249999999999730e+00 7.478640000000000398e+00 1.482499999999999929e-01 2.572589999999999932e+00 7.630029999999999646e+00 1.177099999999999952e-01 7.847480000000000011e+00 7.597229999999999706e+00 5.229099999999999859e+00 2.570240000000000080e+00 7.525269999999999904e+00 5.140340000000000131e+00 7.890060000000000073e+00 2.656769999999999854e+00 2.576389999999999958e+00 5.174699999999999633e+00 2.468850000000000211e+00 2.621480000000000032e+00 1.035284000000000049e+01 2.575880000000000170e+00 7.776309999999999611e+00 5.094820000000000348e+00 2.336819999999999897e+00 7.596580000000000332e+00 1.034314000000000000e+01 7.524600000000000399e+00 2.641199999999999992e+00 5.197379999999999889e+00 7.467749999999999666e+00 2.611559999999999881e+00 3.149700000000000277e-01 7.471040000000000347e+00 7.757369999999999877e+00 5.170539999999999914e+00 7.248820000000000263e+00 7.740529999999999688e+00 1.040123999999999960e+01 7.409000000000000308e-02 1.035699999999999954e-01 5.144630000000000258e+00 9.959440000000000737e+00 2.159300000000000108e-01 1.039094000000000051e+01 1.440500000000000114e-01 4.839520000000000266e+00 5.245840000000000281e+00 9.350000000000000672e-03 5.113030000000000186e+00 1.024113999999999969e+01 5.110940000000000261e+00 1.142600000000000005e-01 5.318859999999999921e+00 4.909620000000000317e+00 1.403500000000000025e-01 2.522999999999999896e-02 4.925300000000000011e+00 5.053519999999999790e+00 5.387080000000000091e+00 5.061829999999999607e+00 5.100780000000000314e+00 4.254000000000000142e-02 3.792580000000000062e+00 3.846890000000000143e+00 3.719300000000000050e+00 4.186469999999999914e+00 4.166140000000000398e+00 8.576309999999999434e+00 3.573300000000000143e+00 8.635870000000000601e+00 3.536630000000000162e+00 3.603549999999999809e+00 9.111039999999999139e+00 8.905599999999999739e+00 8.913880000000000692e+00 3.841680000000000206e+00 3.622970000000000024e+00 8.955629999999999313e+00 3.941969999999999974e+00 8.947889999999999233e+00 8.628009999999999735e+00 8.742660000000000764e+00 3.667790000000000106e+00 8.836819999999999453e+00 9.247090000000000032e+00 8.856920000000000570e+00 3.767009999999999970e+00 1.316719999999999891e+00 1.517859999999999987e+00 3.901819999999999844e+00 1.498739999999999961e+00 6.748910000000000409e+00 3.710249999999999826e+00 6.224440000000000417e+00 1.343299999999999939e+00 3.888250000000000206e+00 6.315470000000000361e+00 6.712340000000000195e+00 8.458940000000000126e+00 1.703160000000000007e+00 1.665210000000000079e+00 8.583640000000000825e+00 1.536429999999999962e+00 6.810380000000000322e+00 8.587970000000000326e+00 6.597419999999999618e+00 1.475249999999999950e+00 8.429669999999999774e+00 6.637789999999999857e+00 6.665230000000000210e+00 3.741389999999999993e+00 1.207019999999999982e+00 4.070680000000000298e+00 3.925479999999999858e+00 1.744180000000000064e+00 9.336610000000000298e+00 3.859360000000000124e+00 6.256820000000000270e+00 4.190809999999999924e+00 3.664369999999999905e+00 6.491170000000000329e+00 9.160899999999999821e+00 8.820029999999999148e+00 1.273700000000000054e+00 4.097229999999999706e+00 8.757250000000000867e+00 1.694890000000000008e+00 9.490399999999999281e+00 8.753470000000000084e+00 6.307339999999999947e+00 4.156100000000000350e+00 8.688579999999999970e+00 6.352680000000000327e+00 9.285199999999999676e+00 3.746280000000000054e+00 3.945489999999999942e+00 1.056510000000000060e+00 3.762519999999999865e+00 3.885269999999999779e+00 6.304899999999999949e+00 3.303620000000000001e+00 8.945180000000000575e+00 9.949000000000000066e-01 3.743689999999999962e+00 8.899430000000000618e+00 6.253219999999999779e+00 8.895310000000000272e+00 4.122049999999999770e+00 1.037800000000000056e+00 8.906140000000000612e+00 3.925260000000000193e+00 6.378800000000000026e+00 8.355199999999999960e+00 9.213179999999999481e+00 8.737800000000000011e-01 8.830600000000000449e+00 9.051899999999999835e+00 6.270809999999999995e+00 1.188639999999999919e+00 1.216409999999999991e+00 3.756749999999999812e+00 9.829400000000000359e-01 1.412930000000000019e+00 8.999959999999999738e+00 1.354959999999999942e+00 6.318570000000000242e+00 3.699359999999999982e+00 1.025130000000000097e+00 6.346140000000000114e+00 8.802889999999999660e+00 6.322379999999999889e+00 1.282270000000000021e+00 3.964409999999999989e+00 6.230749999999999567e+00 1.221580000000000110e+00 8.810100000000000264e+00 6.359250000000000291e+00 6.387050000000000338e+00 3.838820000000000121e+00 6.125320000000000320e+00 6.335919999999999774e+00 8.926669999999999661e+00 1.476860000000000062e+00 3.804180000000000117e+00 1.558070000000000066e+00 1.515449999999999964e+00 3.864570000000000061e+00 6.619889999999999830e+00 6.691700000000000426e-01 9.147040000000000504e+00 1.781859999999999999e+00 1.072990000000000110e+00 9.166729999999999379e+00 6.748780000000000001e+00 6.205280000000000129e+00 3.907770000000000188e+00 1.575129999999999919e+00 6.377690000000000303e+00 4.023189999999999600e+00 6.724339999999999762e+00 5.861559999999999881e+00 9.172200000000000131e+00 1.523449999999999971e+00 6.317800000000000082e+00 8.982169999999999987e+00 6.675460000000000171e+00 1.521889999999999965e+00 3.750049999999999883e+00 4.069530000000000314e+00 1.502019999999999911e+00 4.015170000000000350e+00 9.352399999999999380e+00 1.135930000000000106e+00 8.951290000000000191e+00 4.214730000000000310e+00 1.175149999999999917e+00 9.158989999999999299e+00 9.509740000000000748e+00 6.303440000000000154e+00 3.839789999999999814e+00 4.162569999999999659e+00 6.438299999999999912e+00 3.823690000000000033e+00 9.457910000000000039e+00 6.231519999999999726e+00 8.869009999999999394e+00 4.163179999999999659e+00 6.026559999999999917e+00 8.783580000000000609e+00 9.454250000000000043e+00 9.660900000000000043e-01 1.428409999999999958e+00 1.156789999999999985e+00 1.091650000000000009e+00 1.389259999999999939e+00 6.305010000000000225e+00 1.182879999999999932e+00 6.493949999999999889e+00 1.001230000000000064e+00 9.539400000000000102e-01 6.375510000000000232e+00 6.404029999999999667e+00
1.059999999999999970e-01 2.670999999999999819e+00 2.534879999999999800e+00 1.014802000000000071e+01 2.250370000000000203e+00 7.777470000000000105e+00 9.870139999999999247e+00 7.732059999999999711e+00 2.519509999999999916e+00 1.007182000000000066e+01 7.812780000000000058e+00 7.834699999999999775e+00 5.107249999999999623e+00 2.817489999999999828e+00 2.597710000000000186e+00 5.091300000000000381e+00 2.749589999999999979e+00 7.702490000000000059e+00 4.864550000000000374e+00 7.696760000000000268e+00 2.456550000000000011e+00 5.047019999999999840e+00 7.869430000000000369e+00 7.936960000000000015e+00 2.665150000000000130e+00 1.645000000000000073e-01 2.851240000000000219e+00 2.637420000000000098e+00 1.621799999999999908e-01 8.122329999999999828e+00 2.378200000000000092e+00 5.405389999999999695e+00 2.645589999999999886e+00 2.470250000000000057e+00 5.195599999999999774e+00 7.684569999999999901e+00 7.591719999999999580e+00 2.293800000000000006e-01 2.791420000000000012e+00 7.557019999999999627e+00 1.833999999999999866e-02 8.171699999999999520e+00 7.610249999999999737e+00 5.185179999999999900e+00 2.719190000000000218e+00 7.711070000000000313e+00 5.088379999999999903e+00 8.170279999999999987e+00 2.330330000000000013e+00 2.703120000000000189e+00 5.401980000000000004e+00 2.752250000000000085e+00 2.517349999999999977e+00 3.033899999999999930e-01 2.610879999999999868e+00 7.921499999999999986e+00 5.374839999999999840e+00 2.289359999999999840e+00 7.623800000000000132e+00 4.845000000000000001e-02 7.644680000000000142e+00 2.797779999999999934e+00 5.278999999999999915e+00 7.577749999999999986e+00 2.570539999999999825e+00 2.244000000000000161e-02 7.503940000000000055e+00 7.843650000000000233e+00 5.263200000000000323e+00 7.471160000000000245e+00 7.769949999999999690e+00 4.845000000000000001e-02 5.623000000000000220e-02 8.293000000000000371e-02 5.136409999999999698e+00 -2.494000000000000036e-02 1.023673999999999928e+01 6.149999999999999911e-02 -3.937000000000000222e-02 5.242810000000000414e+00 5.005440000000000111e+00 1.485400000000000054e-01 4.935500000000000220e+00 1.007812000000000019e+01 5.130580000000000140e+00 1.246000000000000024e-01 5.290409999999999613e+00 5.006070000000000242e+00 2.850000000000000103e-02 9.679000000000000103e-02 5.045449999999999768e+00 5.304459999999999731e+00 5.265060000000000073e+00 5.092939999999999579e+00 5.321950000000000180e+00 1.027392000000000039e+01 3.672099999999999920e+00 3.971649999999999903e+00 3.650539999999999896e+00 3.998310000000000031e+00 3.983859999999999957e+00 8.800520000000000564e+00 3.940910000000000135e+00 9.009109999999999729e+00 3.917469999999999786e+00 3.849000000000000199e+00 9.209929999999999950e+00 9.027160000000000295e+00 8.853450000000000486e+00 3.953030000000000044e+00 3.657789999999999875e+00 9.099930000000000518e+00 3.776730000000000143e+00 8.803129999999999455e+00 9.089520000000000266e+00 9.247730000000000672e+00 3.759049999999999780e+00 8.606049999999999756e+00 8.712500000000000355e+00 8.857100000000000861e+00 3.821950000000000180e+00 1.285570000000000102e+00 1.696409999999999973e+00 3.666809999999999903e+00 1.491370000000000084e+00 6.873619999999999841e+00 3.969129999999999825e+00 6.188930000000000042e+00 1.317520000000000024e+00 3.876949999999999896e+00 6.496269999999999989e+00 6.817450000000000010e+00 8.855059999999999931e+00 1.299090000000000078e+00 1.759449999999999958e+00 8.455389999999999517e+00 1.401399999999999979e+00 7.009629999999999583e+00 8.647740000000000649e+00 6.497709999999999653e+00 1.501659999999999995e+00 8.868759999999999977e+00 6.177469999999999573e+00 6.947860000000000369e+00 3.865530000000000133e+00 1.375059999999999949e+00 4.425209999999999866e+00 3.620470000000000077e+00 1.157140000000000057e+00 9.679930000000000589e+00 3.485860000000000181e+00 6.472760000000000069e+00 4.213400000000000034e+00 3.792100000000000026e+00 6.693710000000000271e+00 9.567399999999999238e+00 8.562440000000000495e+00 1.261830000000000007e+00 4.663569999999999993e+00 8.907539999999999125e+00 1.275859999999999994e+00 9.586719999999999686e+00 8.551470000000000127e+00 6.648600000000000065e+00 4.155009999999999870e+00 8.886589999999999989e+00 6.296499999999999986e+00 9.506859999999999644e+00 4.350159999999999805e+00 3.823240000000000194e+00 9.418699999999999850e-01 3.743970000000000020e+00 3.941990000000000105e+00 6.254209999999999603e+00 3.657989999999999853e+00 9.078620000000000800e+00 1.182670000000000110e+00 4.080820000000000114e+00 9.026170000000000471e+00 6.393650000000000055e+00 9.229580000000000339e+00 3.763749999999999929e+00 9.086600000000000232e-01 9.327469999999999928e+00 3.680670000000000108e+00 6.128779999999999895e+00 8.737780000000000769e+00 8.984069999999999112e+00 1.014869999999999939e+00 9.356650000000000134e+00 8.780870000000000175e+00 6.182439999999999714e+00 1.189089999999999980e+00 1.302999999999999936e+00 3.735469999999999846e+00 1.158509999999999929e+00 1.066899999999999959e+00 9.050169999999999604e+00 8.812400000000000233e-01 6.468130000000000379e+00 3.542800000000000171e+00 1.242280000000000051e+00 6.267879999999999896e+00 8.841169999999999973e+00 6.253330000000000055e+00 1.448690000000000033e+00 3.662619999999999987e+00 6.052500000000000213e+00 1.467340000000000089e+00 9.008739999999999526e+00 5.988010000000000055e+00 6.391479999999999606e+00 3.545300000000000118e+00 6.355739999999999945e+00 6.540969999999999729e+00 8.887290000000000134e+00 1.645850000000000035e+00 3.730300000000000171e+00 1.818140000000000089e+00 1.250720000000000054e+00 3.725969999999999782e+00 7.048460000000000392e+00 1.077339999999999964e+00 8.925509999999999167e+00 1.447019999999999973e+00 1.690280000000000005e+00 8.609239999999999782e+00 7.228860000000000063e+00 6.775820000000000398e+00 3.561650000000000205e+00 1.752830000000000110e+00 6.461610000000000298e+00 4.090469999999999828e+00 6.871129999999999960e+00 6.030630000000000379e+00 9.177220000000000155e+00 1.585059999999999913e+00 6.692669999999999675e+00 9.073689999999999145e+00 6.700870000000000104e+00 1.039220000000000033e+00 3.856199999999999850e+00 4.223779999999999646e+00 1.491219999999999990e+00 3.638230000000000075e+00 9.595140000000000668e+00 1.384220000000000006e+00 9.099930000000000518e+00 4.232149999999999856e+00 1.174120000000000053e+00 8.873689999999999856e+00 9.465700000000000003e+00 6.417709999999999582e+00 4.081459999999999866e+00 4.307070000000000398e+00 6.516589999999999883e+00 3.940799999999999859e+00 9.424759999999999138e+00 6.414520000000000444e+00 9.010189999999999699e+00 4.123990000000000045e+00 6.384940000000000282e+00 9.220860000000000056e+00 9.490190000000000126e+00 1.435170000000000057e+00 1.250240000000000018e+00 1.120889999999999942e+00 1.220169999999999977e+00 1.163459999999999939e+00 6.349169999999999980e+00 1.311430000000000096e+00 6.147859999999999658e+00 1.042599999999999971e+00 1.392139999999999933e+00 6.357770000000000366e+00 6.145559999999999690e+00
-9.369999999999999857e-03 2.426989999999999981e+00 2.554269999999999818e+00 9.897650000000000503e+00 2.521599999999999842e+00 7.692160000000000331e+00 1.009416000000000047e+01 7.670860000000000234e+00 2.439639999999999809e+00 -7.684000000000000552e-02 7.790759999999999685e+00 7.535630000000000273e+00 5.226270000000000415e+00 2.565040000000000209e+00 2.556839999999999780e+00 5.004819999999999602e+00 2.658360000000000056e+00 7.759199999999999875e+00 4.925889999999999880e+00 7.745750000000000135e+00 2.366289999999999782e+00 5.061720000000000219e+00 7.874489999999999768e+00 8.003249999999999531e+00 2.601560000000000095e+00 2.161500000000000088e-01 2.970149999999999846e+00 2.336699999999999999e+00 4.073800000000000199e-01 8.259769999999999612e+00 2.578250000000000153e+00 5.242409999999999570e+00 2.659180000000000099e+00 2.526580000000000048e+00 5.197169999999999845e+00 7.974669999999999703e+00 7.715279999999999916e+00 1.465700000000000058e-01 2.894800000000000040e+00 7.418680000000000163e+00 6.673999999999999377e-02 8.136179999999999524e+00 7.658050000000000246e+00 5.168689999999999785e+00 2.671120000000000161e+00 7.528970000000000162e+00 5.255609999999999893e+00 7.961109999999999687e+00 2.424399999999999888e+00 2.648379999999999956e+00 5.514389999999999681e+00 2.394740000000000091e+00 2.593970000000000109e+00 3.626599999999999824e-01 2.742690000000000072e+00 7.670630000000000059e+00 5.645209999999999617e+00 2.502079999999999860e+00 7.778330000000000410e+00 8.079000000000000070e-02 7.631400000000000183e+00 2.581799999999999873e+00 5.450120000000000076e+00 7.484110000000000262e+00 2.427939999999999987e+00 1.691799999999999971e-01 7.565489999999999604e+00 7.553110000000000213e+00 5.453599999999999781e+00 7.622440000000000104e+00 7.764109999999999623e+00 1.036200000000000038e-01 6.468999999999999750e-02 1.292099999999999915e-01 5.109980000000000189e+00 9.971120000000000871e+00 2.091399999999999926e-01 1.030470000000000041e+01 -5.045999999999999791e-02 5.298370000000000246e+00 4.960350000000000037e+00 1.007325999999999944e+01 5.222190000000000332e+00 1.028159999999999918e+01 5.131359999999999921e+00 1.010999999999999954e-01 5.137870000000000381e+00 5.023710000000000342e+00 2.805599999999999761e-01 9.790999999999999703e-02 5.133320000000000327e+00 5.232779999999999987e+00 5.085910000000000153e+00 5.074349999999999916e+00 5.179380000000000095e+00 1.034329999999999927e+01 4.397479999999999833e+00 4.430060000000000109e+00 3.371170000000000222e+00 3.923259999999999970e+00 3.942730000000000068e+00 8.942940000000000111e+00 4.393989999999999618e+00 9.378180000000000405e+00 3.260860000000000092e+00 3.935299999999999798e+00 9.251979999999999649e+00 8.912200000000000344e+00 9.607450000000000045e+00 4.092380000000000351e+00 3.588010000000000144e+00 9.222950000000000870e+00 4.293569999999999887e+00 8.474909999999999499e+00 9.438570000000000348e+00 9.556699999999999307e+00 3.191120000000000179e+00 9.165540000000000020e+00 9.333030000000000825e+00 8.413240000000000052e+00 3.817899999999999849e+00 1.289379999999999971e+00 1.747330000000000050e+00 3.762640000000000207e+00 1.141270000000000007e+00 6.830949999999999633e+00 3.704089999999999883e+00 6.546260000000000190e+00 1.353709999999999969e+00 3.901580000000000048e+00 6.426510000000000389e+00 7.114379999999999704e+00 8.779410000000000380e+00 1.322689999999999921e+00 1.235479999999999912e+00 8.506859999999999644e+00 9.943600000000000216e-01 6.544459999999999944e+00 8.528019999999999712e+00 6.313240000000000407e+00 1.227209999999999912e+00 9.019239999999999924e+00 6.311160000000000103e+00 6.567470000000000141e+00 3.779970000000000052e+00 1.635240000000000027e+00 4.242960000000000065e+00 3.515080000000000204e+00 1.496229999999999949e+00 9.537150000000000460e+00 3.566619999999999902e+00 6.686860000000000248e+00 4.238599999999999923e+00 3.826239999999999863e+00 6.543660000000000032e+00 9.415219999999999700e+00 8.898839999999999861e+00 1.538869999999999960e+00 3.909510000000000041e+00 8.634769999999999612e+00 1.554769999999999985e+00 9.305630000000000734e+00 8.706360000000000099e+00 6.685990000000000322e+00 3.755469999999999864e+00 8.853659999999999641e+00 6.786209999999999631e+00 9.119229999999999947e+00 4.258980000000000210e+00 3.607380000000000031e+00 7.815999999999999615e-01 3.980630000000000113e+00 3.845250000000000057e+00 6.237000000000000099e+00 3.970410000000000217e+00 8.975759999999999295e+00 6.723900000000000432e-01 4.521510000000000140e+00 8.676109999999999545e+00 6.013060000000000294e+00 9.169679999999999609e+00 3.757979999999999876e+00 7.154300000000000104e-01 9.511189999999999145e+00 3.608439999999999870e+00 6.152980000000000338e+00 9.296559999999999491e+00 8.810879999999999157e+00 8.383000000000000451e-01 9.458660000000000068e+00 8.647479999999999833e+00 5.714269999999999960e+00 1.338289999999999980e+00 1.612360000000000015e+00 3.939740000000000020e+00 9.084900000000000198e-01 1.834279999999999911e+00 9.378590000000000870e+00 9.885699999999999488e-01 6.244189999999999685e+00 3.334909999999999819e+00 1.341820000000000013e+00 6.713879999999999626e+00 9.131800000000000139e+00 6.505630000000000024e+00 1.470550000000000024e+00 3.897229999999999972e+00 6.043149999999999800e+00 1.434849999999999959e+00 8.983430000000000248e+00 6.198909999999999698e+00 6.750270000000000437e+00 3.877940000000000165e+00 6.328420000000000378e+00 6.634109999999999729e+00 9.148580000000000823e+00 1.753300000000000081e+00 3.391669999999999963e+00 2.077280000000000015e+00 1.541029999999999900e+00 3.578780000000000072e+00 7.251240000000000130e+00 1.740150000000000086e+00 8.649050000000000793e+00 2.125350000000000072e+00 1.693589999999999929e+00 8.692330000000000112e+00 7.148609999999999687e+00 6.656489999999999796e+00 3.755209999999999937e+00 1.652030000000000109e+00 6.512319999999999887e+00 3.950579999999999981e+00 6.612639999999999851e+00 6.473209999999999908e+00 9.193979999999999819e+00 1.491579999999999906e+00 6.904709999999999681e+00 8.548539999999999139e+00 7.152040000000000397e+00 1.790310000000000068e+00 4.287270000000000358e+00 4.594660000000000188e+00 1.686900000000000066e+00 4.168269999999999698e+00 9.973190000000000666e+00 1.743949999999999889e+00 9.176560000000000272e+00 4.623700000000000365e+00 1.392589999999999995e+00 9.389929999999999666e+00 9.806609999999999161e+00 7.191799999999999748e+00 3.941629999999999967e+00 4.126990000000000158e+00 6.451319999999999943e+00 3.928189999999999849e+00 9.254899999999999238e+00 7.229849999999999888e+00 9.467280000000000584e+00 4.592439999999999856e+00 6.430979999999999919e+00 9.274110000000000298e+00 9.566890000000000782e+00 1.390190000000000037e+00 1.084840000000000027e+00 1.448180000000000023e+00 9.986099999999999977e-01 1.077499999999999902e+00 6.609169999999999767e+00 1.252510000000000012e+00 6.143250000000000099e+00 1.063020000000000076e+00 1.452180000000000026e+00 6.395990000000000286e+00 6.266700000000000159e+00