1.024441934200000048e+01 0.000000000000000000e+00 0.000000000000000000e+00 1.271596000000000054e-03 1.034684234899999922e+01 0.000000000000000000e+00 -1.783315454000000022e+00 -9.086299000000000806e-03 1.045283005199999948e+01
1.031664624000000074e+01 0.000000000000000000e+00 0.000000000000000000e+00 1.280560999999999939e-03 1.041979136500000003e+01 0.000000000000000000e+00 -1.795888479000000038e+00 -9.150360999999999218e-03 1.052652632100000041e+01
1.041793351399999956e+01 0.000000000000000000e+00 0.000000000000000000e+00 7.515174999999999807e-03 1.052563408800000033e+01 0.000000000000000000e+00 -1.804273927999999971e+00 -1.220210600000000076e-02 1.063980676099999911e+01
1.038569818600000083e+01 0.000000000000000000e+00 0.000000000000000000e+00 7.491921999999999818e-03 1.049306551199999937e+01 0.000000000000000000e+00 -1.798691116000000090e+00 -1.216435000000000086e-02 1.060688490899999969e+01
1.033177482299999994e+01 0.000000000000000000e+00 0.000000000000000000e+00 7.453022999999999593e-03 1.043858468900000069e+01 0.000000000000000000e+00 -1.789352169999999909e+00 -1.210119100000000072e-02 1.055181312700000085e+01
1.040354916599999946e+01 0.000000000000000000e+00 0.000000000000000000e+00 7.504799000000000365e-03 1.051110103499999937e+01 0.000000000000000000e+00 -1.801782714000000007e+00 -1.218525799999999916e-02 1.062511606600000036e+01
1.031604148999999992e+01 0.000000000000000000e+00 0.000000000000000000e+00 1.280485999999999951e-03 1.041918056999999997e+01 0.000000000000000000e+00 -1.795783206000000076e+00 -9.149824000000000845e-03 1.052590926799999949e+01
1.049809959699999951e+01 0.000000000000000000e+00 0.000000000000000000e+00 1.303083999999999926e-03 1.060305888100000082e+01 0.000000000000000000e+00 -1.827475294000000083e+00 -9.311300999999999259e-03 1.071167113399999948e+01
1.038218679799999933e+01 0.000000000000000000e+00 0.000000000000000000e+00 7.489388999999999942e-03 1.048951782299999991e+01 0.000000000000000000e+00 -1.798082981999999941e+00 -1.216023700000000082e-02 1.060329873799999945e+01
1.038043080399999951e+01 0.000000000000000000e+00 0.000000000000000000e+00 1.288478000000000019e-03 1.048421364400000044e+01 0.000000000000000000e+00 -1.806991889999999934e+00 -9.206934999999999425e-03 1.059160850800000020e+01
1.043258088099999981e+01 0.000000000000000000e+00 0.000000000000000000e+00 7.525740999999999854e-03 1.054043287999999912e+01 0.000000000000000000e+00 -1.806810693999999939e+00 -1.221926100000000036e-02 1.065476607599999959e+01
1.047110523499999957e+01 0.000000000000000000e+00 0.000000000000000000e+00 7.553531999999999955e-03 1.057935549900000005e+01 0.000000000000000000e+00 -1.813482698000000060e+00 -1.226438300000000023e-02 1.069411089299999951e+01
1.033759775899999944e+01 0.000000000000000000e+00 0.000000000000000000e+00 7.457224000000000144e-03 1.044446782300000010e+01 0.000000000000000000e+00 -1.790360640000000059e+00 -1.210801100000000012e-02 1.055776007599999922e+01
1.033209477099999951e+01 0.000000000000000000e+00 0.000000000000000000e+00 7.453254000000000302e-03 1.043890794500000041e+01 0.000000000000000000e+00 -1.789407581999999941e+00 -1.210156599999999937e-02 1.055213988899999933e+01
1.045131694400000022e+01 0.000000000000000000e+00 0.000000000000000000e+00 7.539256999999999730e-03 1.055936263599999947e+01 0.000000000000000000e+00 -1.810055578999999915e+00 -1.224120599999999927e-02 1.067390116600000027e+01
1.038252845000000057e+01 0.000000000000000000e+00 0.000000000000000000e+00 1.288738999999999900e-03 1.048633226199999946e+01 0.000000000000000000e+00 -1.807357042000000025e+00 -9.208795000000000522e-03 1.059374882800000073e+01
1.039400069300000062e+01 0.000000000000000000e+00 0.000000000000000000e+00 7.497911000000000332e-03 1.050145385000000076e+01 0.000000000000000000e+00 -1.800129021000000051e+00 -1.217407400000000001e-02 1.061536423599999956e+01
1.045361581499999915e+01 0.000000000000000000e+00 0.000000000000000000e+00 7.540914999999999598e-03 1.056168527300000015e+01 0.000000000000000000e+00 -1.810453717999999990e+00 -1.224389900000000080e-02 1.067624899599999999e+01
1.047500007000000011e+01 0.000000000000000000e+00 0.000000000000000000e+00 1.300216999999999996e-03 1.057972840599999920e+01 0.000000000000000000e+00 -1.823454203000000051e+00 -9.290813000000000196e-03 1.068810167400000033e+01
1.043115183499999965e+01 0.000000000000000000e+00 0.000000000000000000e+00 1.294774000000000055e-03 1.053544177999999931e+01 0.000000000000000000e+00 -1.815821243999999890e+00 -9.251921999999999230e-03 1.064336139799999970e+01
1.031068813000000084e+01 0.000000000000000000e+00 0.000000000000000000e+00 1.279821999999999904e-03 1.041377368700000083e+01 0.000000000000000000e+00 -1.794851310999999949e+00 -9.145076000000000246e-03 1.052044700000000077e+01
1.046565991599999990e+01 0.000000000000000000e+00 0.000000000000000000e+00 7.549603999999999690e-03 1.057385388600000020e+01 0.000000000000000000e+00 -1.812539627000000042e+00 -1.225800600000000011e-02 1.068854960400000031e+01
1.045486119499999944e+01 0.000000000000000000e+00 0.000000000000000000e+00 1.297717000000000098e-03 1.055938818499999954e+01 0.000000000000000000e+00 -1.819948491999999973e+00 -9.272950999999999763e-03 1.066755309700000076e+01
1.046126011900000030e+01 0.000000000000000000e+00 0.000000000000000000e+00 7.546429999999999805e-03 1.056940860299999940e+01 0.000000000000000000e+00 -1.811777629999999917e+00 -1.225285199999999984e-02 1.068405610199999956e+01
1.040356841100000018e+01 0.000000000000000000e+00 0.000000000000000000e+00 7.504812999999999935e-03 1.051112047900000057e+01 0.000000000000000000e+00 -1.801786047000000002e+00 -1.218527999999999972e-02 1.062513572099999948e+01
1.044886839800000011e+01 0.000000000000000000e+00 0.000000000000000000e+00 1.296973000000000093e-03 1.055333547200000055e+01 0.000000000000000000e+00 -1.818905285999999899e+00 -9.267634999999999762e-03 1.066143838400000021e+01
1.030052097299999936e+01 0.000000000000000000e+00 0.000000000000000000e+00 1.278559999999999983e-03 1.040350487999999984e+01 0.000000000000000000e+00 -1.793081445000000107e+00 -9.136058000000000720e-03 1.051007300400000055e+01
1.042268546600000079e+01 0.000000000000000000e+00 0.000000000000000000e+00 7.518602999999999571e-03 1.053043516600000018e+01 0.000000000000000000e+00 -1.805096915000000024e+00 -1.220767099999999980e-02 1.064465991600000017e+01
1.038531977399999917e+01 0.000000000000000000e+00 0.000000000000000000e+00 1.289084999999999927e-03 1.048915149299999960e+01 0.000000000000000000e+00 -1.807842946000000062e+00 -9.211271000000000042e-03 1.059659693699999927e+01
1.032712781000000035e+01 0.000000000000000000e+00 0.000000000000000000e+00 1.281861999999999932e-03 1.043037773000000001e+01 0.000000000000000000e+00 -1.797713077000000048e+00 -9.159656999999999868e-03 1.053722112600000038e+01
1.041365138899999998e+01 0.000000000000000000e+00 0.000000000000000000e+00 7.512086000000000284e-03 1.052130769500000085e+01 0.000000000000000000e+00 -1.803532310000000027e+00 -1.219709000000000071e-02 1.063543343799999974e+01
1.025072819200000040e+01 0.000000000000000000e+00 0.000000000000000000e+00 1.272378999999999915e-03 1.035321427400000083e+01 0.000000000000000000e+00 -1.784413677999999948e+00 -9.091894999999999144e-03 1.045926724799999974e+01
1.047956983799999975e+01 0.000000000000000000e+00 0.000000000000000000e+00 7.559637999999999601e-03 1.058790760800000008e+01 0.000000000000000000e+00 -1.814948675999999983e+00 -1.227429799999999946e-02 1.070275576799999939e+01
1.046188749999999956e+01 0.000000000000000000e+00 0.000000000000000000e+00 1.298588999999999950e-03 1.056648473799999977e+01 0.000000000000000000e+00 -1.821171609000000080e+00 -9.279182999999999876e-03 1.067472234399999920e+01
1.025575517799999936e+01 0.000000000000000000e+00 0.000000000000000000e+00 7.398184999999999831e-03 1.036177915300000052e+01 0.000000000000000000e+00 -1.776186386000000006e+00 -1.201215299999999937e-02 1.047417447399999979e+01
1.044541607999999933e+01 0.000000000000000000e+00 0.000000000000000000e+00 1.296545000000000076e-03 1.054984863800000028e+01 0.000000000000000000e+00 -1.818304316999999948e+00 -9.264572999999999905e-03 1.065791583300000056e+01
1.040204276899999947e+01 0.000000000000000000e+00 0.000000000000000000e+00 7.503712000000000056e-03 1.050957906500000050e+01 0.000000000000000000e+00 -1.801521821999999995e+00 -1.218349300000000010e-02 1.062357758699999977e+01
1.037475293399999998e+01 0.000000000000000000e+00 0.000000000000000000e+00 7.484026000000000393e-03 1.048200710799999946e+01 0.000000000000000000e+00 -1.796795517000000064e+00 -1.215153000000000066e-02 1.059570655299999942e+01
1.033693448700000062e+01 0.000000000000000000e+00 0.000000000000000000e+00 7.456744999999999866e-03 1.044379769400000058e+01 0.000000000000000000e+00 -1.790245768999999987e+00 -1.210723499999999918e-02 1.055708267800000044e+01
1.050307883900000050e+01 0.000000000000000000e+00 0.000000000000000000e+00 1.303701999999999899e-03 1.060808790499999965e+01 0.000000000000000000e+00 -1.828342064000000100e+00 -9.315716999999999401e-03 1.071675167199999912e+01
1.043824400099999927e+01 0.000000000000000000e+00 0.000000000000000000e+00 7.529827000000000221e-03 1.054615454500000027e+01 0.000000000000000000e+00 -1.807791485999999948e+00 -1.222589399999999930e-02 1.066054980500000049e+01
1.037495769500000087e+01 0.000000000000000000e+00 0.000000000000000000e+00 7.484173999999999688e-03 1.048221398499999957e+01 0.000000000000000000e+00 -1.796830979000000106e+00 -1.215176999999999924e-02 1.059591567500000053e+01
1.032427189500000075e+01 0.000000000000000000e+00 0.000000000000000000e+00 1.281507999999999996e-03 1.042749326200000048e+01 0.000000000000000000e+00 -1.797215929000000045e+00 -9.157124000000000860e-03 1.053430711100000039e+01
1.033670015100000050e+01 0.000000000000000000e+00 0.000000000000000000e+00 1.283049999999999989e-03 1.044004577399999967e+01 0.000000000000000000e+00 -1.799379398999999990e+00 -9.168147999999999229e-03 1.054698820499999989e+01
1.031108219100000056e+01 0.000000000000000000e+00 0.000000000000000000e+00 1.279870000000000009e-03 1.041417168799999970e+01 0.000000000000000000e+00 -1.794919906999999926e+00 -9.145425999999999903e-03 1.052084907799999947e+01
1.047569676700000052e+01 0.000000000000000000e+00 0.000000000000000000e+00 7.556844000000000061e-03 1.058399449799999914e+01 0.000000000000000000e+00 -1.814277901999999942e+00 -1.226976100000000056e-02 1.069880021100000000e+01
1.038799781400000022e+01 0.000000000000000000e+00 0.000000000000000000e+00 1.289418000000000075e-03 1.049185630799999913e+01 0.000000000000000000e+00 -1.808309130999999903e+00 -9.213646000000000683e-03 1.059932945999999987e+01
1.041876069299999941e+01 0.000000000000000000e+00 0.000000000000000000e+00 1.293235999999999908e-03 1.052292675200000005e+01 0.000000000000000000e+00 -1.813664233999999986e+00 -9.240931000000000839e-03 1.063071817299999999e+01
1.028307968600000066e+01 0.000000000000000000e+00 0.000000000000000000e+00 1.276395000000000047e-03 1.038588921500000062e+01 0.000000000000000000e+00 -1.790045322000000105e+00 -9.120589000000000127e-03 1.049227689399999974e+01
1.036808360700000087e+01 0.000000000000000000e+00 0.000000000000000000e+00 1.286945999999999967e-03 1.047174300000000002e+01 0.000000000000000000e+00 -1.804842529999999945e+00 -9.195982999999999588e-03 1.057901012099999960e+01
