1.021326000000000001e+01 2.458279999999999799e+00 2.457530000000000214e+00 1.007618000000000080e+01 2.250609999999999999e+00 7.650970000000000049e+00 1.003082999999999991e+01 8.013769999999999172e+00 2.589059999999999917e+00 2.168400000000000050e-01 8.034179999999999211e+00 7.720399999999999707e+00 5.136619999999999742e+00 2.795069999999999943e+00 2.421559999999999935e+00 5.746999999999999886e+00 2.675289999999999946e+00 7.665569999999999773e+00 5.126909999999999634e+00 8.174580000000000624e+00 2.645960000000000090e+00 5.040259999999999962e+00 8.052820000000000533e+00 7.577309999999999768e+00 2.539629999999999832e+00 4.698850000000000193e+00 2.564200000000000035e+00 2.586710000000000065e+00 4.914229999999999876e+00 7.516239999999999810e+00 2.840050000000000185e+00 1.033868000000000009e+01 2.595079999999999831e+00 2.682749999999999968e+00 1.044497999999999927e+01 7.353659999999999641e+00 7.757659999999999556e+00 5.270730000000000359e+00 2.700730000000000075e+00 7.795410000000000394e+00 5.136070000000000135e+00 7.808349999999999902e+00 7.784089999999999954e+00 1.049018000000000050e+01 2.703959999999999919e+00 7.860059999999999825e+00 1.023737999999999992e+01 7.362000000000000099e+00 2.576189999999999980e+00 2.354540000000000077e+00 5.070210000000000328e+00 2.804240000000000066e+00 2.150450000000000195e+00 1.010365999999999964e+01 2.709020000000000206e+00 7.242329999999999934e+00 4.840279999999999916e+00 2.495550000000000157e+00 7.618649999999999700e+00 1.617099999999999926e-01 7.716109999999999580e+00 2.795929999999999804e+00 4.895749999999999602e+00 8.068170000000000286e+00 2.383270000000000000e+00 3.953000000000000264e-02 7.638709999999999667e+00 8.016880000000000450e+00 5.016049999999999898e+00 7.533529999999999838e+00 7.756709999999999994e+00 1.016297999999999924e+01 1.015596000000000032e+01 5.458230000000000359e+00 5.189949999999999619e+00 1.018266000000000027e+01 5.416050000000000253e+00 1.025287999999999933e+01 1.597000000000000086e-01 1.037407999999999930e+01 4.931189999999999962e+00 3.142599999999999838e-01 1.036237999999999992e+01 1.028728000000000087e+01 5.131079999999999863e+00 5.335280000000000022e+00 5.284900000000000375e+00 5.171219999999999928e+00 5.216479999999999784e+00 1.028958000000000084e+01 5.229840000000000266e+00 1.192000000000000004e-01 4.789649999999999963e+00 5.251870000000000260e+00 1.063000000000000056e-01 1.000661000000000023e+01 3.736409999999999787e+00 3.917749999999999844e+00 3.923290000000000166e+00 4.148139999999999716e+00 4.276559999999999917e+00 8.681580000000000297e+00 4.074939999999999785e+00 9.378320000000000434e+00 3.780969999999999942e+00 4.255560000000000009e+00 9.828580000000000538e+00 8.672390000000000043e+00 9.045719999999999317e+00 3.966520000000000046e+00 3.804860000000000131e+00 9.090790000000000148e+00 4.198059999999999903e+00 8.879870000000000374e+00 8.804520000000000124e+00 9.448359999999999204e+00 4.047299999999999898e+00 9.372749999999999915e+00 9.651389999999999247e+00 8.560090000000000643e+00 3.748289999999999900e+00 6.625699999999999923e-01 1.035690000000000000e+00 3.858099999999999863e+00 7.457799999999999985e-01 6.130560000000000009e+00 3.428189999999999849e+00 6.079979999999999940e+00 1.318510000000000071e+00 3.516010000000000080e+00 6.384299999999999642e+00 6.437850000000000072e+00 9.085850000000000648e+00 1.004739999999999966e+00 1.058759999999999923e+00 9.084020000000000650e+00 4.689999999999999725e-01 6.399969999999999715e+00 8.222319999999999851e+00 6.358380000000000365e+00 1.246429999999999927e+00 8.787750000000000838e+00 6.645730000000000359e+00 6.346280000000000143e+00 3.604519999999999946e+00 1.269339999999999913e+00 3.521689999999999987e+00 4.144840000000000302e+00 1.756969999999999921e+00 8.764189999999999259e+00 3.971200000000000063e+00 6.462150000000000283e+00 3.618660000000000210e+00 4.056759999999999700e+00 6.791540000000000354e+00 9.186090000000000089e+00 9.052020000000000621e+00 1.240040000000000031e+00 3.829610000000000181e+00 9.395970000000000155e+00 1.046429999999999971e+00 9.127969999999999473e+00 9.273030000000000328e+00 6.653319999999999901e+00 4.027309999999999945e+00 9.252380000000000493e+00 7.030289999999999928e+00 9.182270000000000820e+00 3.696470000000000145e+00 3.452700000000000102e+00 1.079860000000000042e+00 4.022289999999999921e+00 3.382449999999999957e+00 6.349380000000000024e+00 3.916599999999999859e+00 8.775339999999999918e+00 1.339190000000000103e+00 3.507839999999999847e+00 8.791150000000000020e+00 6.441080000000000361e+00 1.242429999999999923e+00 6.156700000000000506e-01 3.621529999999999916e+00 1.602889999999999926e+00 3.504900000000000237e-01 9.005240000000000578e+00 1.543439999999999923e+00 6.072519999999999918e+00 3.583839999999999915e+00 1.437030000000000030e+00 5.626619999999999955e+00 8.741830000000000211e+00 6.408009999999999984e+00 1.169240000000000057e+00 3.299619999999999997e+00 6.517850000000000144e+00 1.275109999999999966e+00 8.979520000000000834e+00 6.751549999999999940e+00 6.550559999999999938e+00 4.040619999999999656e+00 6.398629999999999818e+00 6.418599999999999639e+00 8.815630000000000521e+00 9.386100000000000554e-01 4.441729999999999734e+00 1.361250000000000071e+00 7.278599999999999515e-01 4.080289999999999750e+00 6.564569999999999794e+00 1.387839999999999963e+00 9.515850000000000364e+00 1.495360000000000023e+00 9.395200000000000218e-01 9.291159999999999641e+00 6.354879999999999640e+00 5.994040000000000035e+00 4.836439999999999628e+00 1.744529999999999914e+00 6.451780000000000292e+00 4.383510000000000240e+00 6.557199999999999918e+00 6.677570000000000228e+00 9.754640000000000200e+00 7.826899999999999968e-01 6.601679999999999993e+00 9.540359999999999729e+00 6.000420000000000087e+00 1.199449999999999905e+00 3.470429999999999904e+00 3.917769999999999975e+00 1.196760000000000046e+00 2.911410000000000053e+00 8.914160000000000750e+00 1.380300000000000082e+00 8.846849999999999881e+00 3.729919999999999902e+00 1.916830000000000034e+00 8.191910000000000025e+00 8.635170000000000456e+00 6.484490000000000087e+00 3.833940000000000126e+00 3.914210000000000189e+00 6.596350000000000158e+00 3.774179999999999868e+00 9.355639999999999290e+00 6.523679999999999701e+00 9.491329999999999600e+00 3.620280000000000165e+00 6.677679999999999616e+00 8.992869999999999919e+00 8.384410000000000807e+00 1.033970000000000056e+00 1.817299999999999915e+00 1.082699999999999996e+00 1.091339999999999977e+00 1.160160000000000080e+00 6.651130000000000209e+00 7.654999999999999583e-01 7.086820000000000341e+00 9.422199999999999465e-01 1.124270000000000103e+00 6.854639999999999844e+00 6.233360000000000234e+00 6.317829999999999835e+00 2.256180000000000074e+00 1.211489999999999956e+00 6.324519999999999698e+00 1.729049999999999976e+00 5.929199999999999804e+00 6.119449999999999612e+00 7.160519999999999996e+00 1.238599999999999923e+00 5.844990000000000130e+00 6.833280000000000243e+00 6.237529999999999575e+00
1.047531000000000034e+01 2.765849999999999920e+00 2.823139999999999983e+00 1.018685999999999936e+01 2.707780000000000076e+00 7.496290000000000120e+00 1.020720999999999989e+01 8.251139999999999475e+00 2.658850000000000158e+00 1.042292999999999914e+01 8.160959999999999326e+00 7.705729999999999968e+00 4.988279999999999603e+00 2.056140000000000079e+00 2.658479999999999954e+00 5.403019999999999712e+00 2.525290000000000035e+00 8.186429999999999652e+00 5.357440000000000424e+00 8.346959999999999269e+00 2.628579999999999917e+00 5.382959999999999745e+00 8.067690000000000694e+00 7.579119999999999635e+00 2.889609999999999790e+00 4.684890000000000221e+00 2.384009999999999962e+00 2.732200000000000184e+00 5.621340000000000003e+00 7.587460000000000093e+00 2.729340000000000099e+00 1.028716000000000008e+01 2.396749999999999936e+00 2.789460000000000051e+00 1.065426000000000073e+01 8.313090000000000757e+00 7.696229999999999905e+00 5.494299999999999962e+00 2.428189999999999849e+00 7.730540000000000411e+00 5.073360000000000092e+00 7.777940000000000076e+00 8.009019999999999584e+00 1.043266000000000027e+01 2.671959999999999891e+00 7.732689999999999841e+00 1.033165999999999940e+01 7.690920000000000201e+00 2.500030000000000197e+00 2.626360000000000028e+00 5.251000000000000334e+00 2.745789999999999953e+00 2.692899999999999849e+00 1.028392999999999979e+01 2.941030000000000033e+00 8.167130000000000223e+00 4.903120000000000367e+00 2.574310000000000098e+00 7.503020000000000245e+00 1.033832999999999913e+01 7.263250000000000206e+00 2.456749999999999989e+00 5.385779999999999568e+00 8.157780000000000697e+00 2.182279999999999998e+00 3.412000000000000033e-01 7.879679999999999573e+00 7.845810000000000173e+00 5.552649999999999864e+00 8.063719999999999999e+00 7.673440000000000261e+00 1.018806999999999974e+01 2.913899999999999824e-01 5.327329999999999899e+00 4.987549999999999706e+00 9.118999999999999329e-02 5.418560000000000265e+00 1.040522999999999954e+01 1.040671000000000035e+01 1.078936000000000028e+01 5.261300000000000310e+00 1.041020999999999930e+01 1.045316000000000045e+01 1.008427999999999969e+01 5.474510000000000431e+00 5.384170000000000122e+00 5.085600000000000342e+00 5.281049999999999578e+00 4.873039999999999594e+00 1.015521999999999991e+01 4.751789999999999736e+00 9.339999999999999691e-02 5.287560000000000038e+00 5.589419999999999611e+00 1.082925999999999966e+01 4.243000000000000105e-01 4.329209999999999781e+00 4.119959999999999845e+00 3.568929999999999936e+00 4.269090000000000273e+00 6.004240000000000244e+00 8.622600000000000264e+00 6.729820000000000135e+00 8.833399999999999253e+00 4.096669999999999590e+00 3.649719999999999853e+00 9.515900000000000469e-01 6.855249999999999844e+00 9.636369999999999436e+00 3.998159999999999936e+00 4.106090000000000018e+00 9.747550000000000381e+00 4.441849999999999632e+00 8.947490000000000165e+00 9.558469999999999800e+00 9.463190000000000879e+00 4.010760000000000325e+00 9.219749999999999446e+00 9.453620000000000800e+00 8.874990000000000379e+00 4.185539999999999594e+00 1.082959999999999923e+00 9.541029999999999234e+00 3.163959999999999884e+00 1.509579999999999922e+00 3.744339999999999780e+00 3.917949999999999822e+00 6.031250000000000000e+00 7.995600000000000485e-01 4.181510000000000282e+00 6.420020000000000060e+00 6.082729999999999748e+00 9.236689999999999401e+00 6.732700000000000351e+00 1.050459999999999949e+00 9.159950000000000259e+00 6.932369999999999699e+00 3.985430000000000028e+00 1.067520000000000024e+00 7.200520000000000032e+00 7.023399999999999643e-01 8.407799999999999718e-01 9.698570000000000135e+00 6.908159999999999634e+00 4.324530000000000207e+00 9.725939999999999586e+00 3.664890000000000203e+00 3.944100000000000161e+00 3.676109999999999989e+00 8.934120000000000061e+00 3.253769999999999829e+00 8.674469999999999459e+00 1.488259999999999916e+00 3.974219999999999864e+00 8.885899999999999466e+00 9.252230000000000842e+00 7.529880000000000351e+00 1.552040000000000086e+00 3.356590000000000185e+00 8.638749999999999929e+00 3.896129999999999871e+00 6.546420000000000350e+00 9.521039999999999281e+00 6.378040000000000376e+00 6.548269999999999591e+00 9.715439999999999188e+00 7.109790000000000276e+00 9.353059999999999263e+00 4.044069999999999609e+00 3.440420000000000034e+00 1.163810000000000011e+00 3.471239999999999881e+00 4.308270000000000266e+00 6.036979999999999791e+00 6.462690000000000268e+00 9.463459999999999539e+00 1.389869999999999939e+00 6.108679999999999666e+00 9.683939999999999770e+00 6.380379999999999718e+00 3.031800000000000050e-01 8.929700000000000415e-01 3.568950000000000067e+00 1.602070000000000105e+00 1.007460000000000022e+00 9.408789999999999765e+00 7.029999999999999583e-01 6.117589999999999861e+00 3.177659999999999929e+00 1.785959999999999992e+00 7.302100000000000257e+00 8.567090000000000316e+00 8.950369999999999493e+00 1.735419999999999963e+00 8.978279999999999816e+00 6.752089999999999925e+00 4.517100000000000004e-01 9.407059999999999533e+00 6.615520000000000067e+00 4.238199999999999967e+00 3.850670000000000037e+00 6.811790000000000234e+00 8.616860000000000852e+00 8.902169999999999916e+00 8.393399999999999750e-01 1.029706000000000010e+01 1.468769999999999909e+00 8.687300000000000022e-01 3.999319999999999986e+00 6.642800000000000260e+00 9.239800000000000679e+00 9.427350000000000563e+00 1.416719999999999979e+00 3.877240000000000020e+00 9.239639999999999631e+00 6.476469999999999949e+00 6.285989999999999966e+00 1.596230000000000038e+00 1.217260000000000009e+00 6.114700000000000024e+00 3.686249999999999805e+00 6.453640000000000043e+00 4.225839999999999819e+00 7.161389999999999922e+00 3.736289999999999889e+00 6.955779999999999852e+00 6.031469999999999665e+00 9.520929999999999893e+00 1.462660000000000071e+00 3.700870000000000104e+00 3.825089999999999879e+00 2.063969999999999860e+00 4.583389999999999631e+00 9.744519999999999627e+00 1.933159999999999989e+00 9.646839999999999193e+00 4.052150000000000141e+00 1.733020000000000005e+00 9.490489999999999426e+00 9.750989999999999824e+00 5.356010000000000382e+00 1.861369999999999969e+00 4.745540000000000092e+00 6.563500000000000334e+00 3.143100000000000005e+00 9.601990000000000691e+00 8.992979999999999308e+00 9.134100000000000108e+00 6.326679999999999637e+00 6.826260000000000439e+00 7.269169999999999909e+00 1.983749999999999902e+00 7.383600000000000163e-01 3.255389999999999784e+00 8.031199999999999450e-01 9.806200000000000472e-01 1.397710000000000008e+00 6.392750000000000377e+00 8.736720000000000041e+00 3.394420000000000215e+00 1.748170000000000002e+00 1.704050000000000065e+00 6.942319999999999602e+00 5.842600000000000016e+00 8.765700000000000713e+00 9.949999999999999956e-01 5.997060000000000279e+00 6.752620000000000289e+00 1.122060000000000057e+00 7.168000000000000149e+00 6.334620000000000140e+00 4.633259999999999934e+00 1.267679999999999918e+00 6.675089999999999968e+00 6.560019999999999740e+00 6.743050000000000210e+00
9.872609999999999886e+00 2.889810000000000212e+00 2.433940000000000214e+00 3.792999999999999844e-02 2.350729999999999986e+00 7.428980000000000139e+00 1.468200000000000061e-01 7.476390000000000313e+00 2.333180000000000032e+00 8.841999999999999860e-02 7.863209999999999589e+00 7.617049999999999876e+00 5.523749999999999716e+00 2.523969999999999825e+00 2.382810000000000095e+00 5.174959999999999560e+00 2.553490000000000038e+00 7.545309999999999739e+00 5.147890000000000299e+00 7.982479999999999798e+00 2.762230000000000185e+00 4.983109999999999928e+00 7.785519999999999996e+00 7.422200000000000131e+00 2.538209999999999855e+00 4.793490000000000251e+00 2.289439999999999920e+00 2.668590000000000018e+00 4.937020000000000408e+00 7.835440000000000182e+00 3.018130000000000202e+00 1.054555000000000042e+01 2.573090000000000099e+00 2.308300000000000018e+00 3.645000000000000323e-02 7.445030000000000037e+00 7.678679999999999950e+00 5.573820000000000441e+00 2.654119999999999813e+00 7.795480000000000409e+00 5.437000000000000277e+00 7.514380000000000059e+00 7.762920000000000265e+00 1.042464999999999975e+01 2.357110000000000039e+00 7.933300000000000018e+00 1.060185000000000066e+01 7.464220000000000077e+00 2.835329999999999906e+00 2.521869999999999834e+00 4.757329999999999615e+00 2.820920000000000094e+00 2.371859999999999857e+00 1.658600000000000074e-01 2.484399999999999942e+00 8.003890000000000171e+00 5.026320000000000121e+00 2.665490000000000137e+00 8.018159999999999954e+00 5.090000000000000080e-02 7.662149999999999572e+00 2.580189999999999984e+00 4.844829999999999970e+00 7.691370000000000040e+00 2.394919999999999938e+00 1.020362000000000080e+01 7.638270000000000337e+00 7.656880000000000130e+00 5.190750000000000419e+00 7.394919999999999938e+00 7.748039999999999594e+00 1.013781999999999961e+01 2.267800000000000094e-01 4.849750000000000227e+00 5.052999999999999936e+00 1.773999999999999883e-02 5.308980000000000032e+00 9.948079999999999146e+00 2.778999999999999873e-02 1.054134999999999955e+01 4.784709999999999575e+00 8.858000000000000596e-02 1.024274999999999913e+01 1.114900000000000058e-01 5.064460000000000406e+00 4.828969999999999985e+00 5.075829999999999842e+00 5.015089999999999826e+00 5.031130000000000102e+00 1.017182000000000031e+01 5.374959999999999738e+00 1.062945000000000029e+01 5.106239999999999668e+00 5.005010000000000403e+00 1.007478000000000051e+01 1.021934000000000076e+01 3.657230000000000203e+00 4.051040000000000418e+00 3.825919999999999987e+00 4.041470000000000340e+00 4.065800000000000303e+00 8.811139999999999972e+00 3.821959999999999802e+00 9.470800000000000551e+00 3.875230000000000175e+00 3.170230000000000103e+00 9.905319999999999681e+00 9.179209999999999425e+00 9.163660000000000139e+00 9.704199999999999493e-01 6.022529999999999717e+00 8.722319999999999851e+00 4.237110000000000376e+00 9.197279999999999234e+00 9.054420000000000357e+00 8.889730000000000132e+00 1.214609999999999967e+00 8.570510000000000517e+00 9.615159999999999485e+00 9.180500000000000327e+00 3.791249999999999787e+00 9.221200000000000507e-01 1.205969999999999986e+00 3.877899999999999903e+00 9.599100000000000410e-01 6.425860000000000127e+00 3.629049999999999887e+00 6.239320000000000199e+00 8.213300000000000045e-01 3.770820000000000061e+00 6.051330000000000098e+00 6.123520000000000074e+00 8.967869999999999564e+00 1.091299999999999937e+00 8.707399999999999585e-01 8.926920000000000854e+00 9.147289999999999921e+00 6.512120000000000353e+00 8.757460000000000022e+00 6.887859999999999872e+00 3.654069999999999929e+00 9.161319999999999908e+00 6.170919999999999739e+00 6.163909999999999556e+00 4.162670000000000314e+00 1.471770000000000023e+00 3.835020000000000095e+00 3.916259999999999852e+00 1.546389999999999931e+00 8.951840000000000686e+00 3.692940000000000111e+00 6.576760000000000161e+00 3.445100000000000051e+00 4.023900000000000254e+00 6.790849999999999831e+00 8.926560000000000272e+00 8.961000000000000298e+00 1.208779999999999966e+00 3.492669999999999941e+00 8.492739999999999512e+00 1.767020000000000035e+00 8.266170000000000684e+00 8.735250000000000625e+00 4.054759999999999920e+00 3.768419999999999881e+00 8.808109999999999218e+00 6.607039999999999580e+00 1.118409999999999904e+00 3.992770000000000152e+00 3.548779999999999824e+00 1.219689999999999941e+00 3.792920000000000069e+00 3.605109999999999815e+00 6.370689999999999742e+00 4.055869999999999642e+00 8.962270000000000181e+00 1.320869999999999989e+00 3.660239999999999938e+00 8.851110000000000255e+00 6.277420000000000222e+00 1.586200000000000054e+00 3.946700000000000208e-01 3.707720000000000127e+00 3.975799999999999890e-01 5.042900000000000160e-01 8.524380000000000734e+00 1.209570000000000034e+00 5.826310000000000322e+00 3.404889999999999972e+00 8.760960000000000747e+00 7.025179999999999758e+00 8.705640000000000711e+00 6.475900000000000212e+00 8.706000000000000405e-01 3.530100000000000016e+00 6.430200000000000138e+00 1.461160000000000014e+00 6.118710000000000093e+00 6.301059999999999661e+00 6.299280000000000435e+00 4.085410000000000430e+00 6.638099999999999667e+00 5.820990000000000109e+00 9.201290000000000191e+00 1.024420000000000108e+00 3.937759999999999927e+00 1.215729999999999977e+00 1.303230000000000111e+00 3.899709999999999788e+00 6.584509999999999863e+00 1.513900000000000023e+00 9.260160000000000835e+00 1.499889999999999946e+00 1.216639999999999944e+00 9.579150000000000276e+00 6.204819999999999780e+00 6.713560000000000194e+00 4.190129999999999910e+00 1.461559999999999970e+00 8.998710000000000875e+00 3.511960000000000193e+00 6.193800000000000416e+00 6.436429999999999652e+00 9.502589999999999648e+00 1.228069999999999995e+00 6.401049999999999685e+00 9.720499999999999474e+00 6.165670000000000428e+00 9.360399999999999832e-01 3.224229999999999929e+00 3.995159999999999823e+00 1.169070000000000054e+00 6.138219999999999565e+00 8.538389999999999702e+00 6.790899999999999714e-01 8.621629999999999683e+00 3.804399999999999782e+00 1.067790000000000017e+00 8.524599999999999511e+00 9.189260000000000872e+00 6.302839999999999776e+00 3.630209999999999937e+00 3.881470000000000198e+00 6.592399999999999594e+00 3.194160000000000110e+00 9.097889999999999588e+00 6.755489999999999995e+00 8.799039999999999750e+00 3.760940000000000172e+00 6.186009999999999565e+00 8.885559999999999903e+00 8.392200000000000770e+00 1.298980000000000024e+00 1.458530000000000104e+00 1.081190000000000095e+00 1.406490000000000018e+00 1.343979999999999952e+00 6.093189999999999884e+00 1.245870000000000033e+00 6.630670000000000286e+00 9.475299999999999834e-01 1.143669999999999964e+00 7.024110000000000298e+00 6.028229999999999755e+00 6.480019999999999669e+00 1.344689999999999941e+00 1.293350000000000000e+00 6.443120000000000402e+00 4.220589999999999620e+00 6.651119999999999699e+00 6.167320000000000135e+00 6.937859999999999694e+00 1.450080000000000036e+00 6.768259999999999721e+00 6.824169999999999625e+00 6.687669999999999781e+00
1.004707999999999934e+01 2.462499999999999911e+00 2.520010000000000083e+00 1.013888000000000034e+01 2.462499999999999911e+00 7.691580000000000084e+00 5.197599999999999998e-01 8.175369999999999138e+00 2.426400000000000112e+00 5.748100000000000431e-01 8.035310000000000841e+00 7.666909999999999670e+00 5.393570000000000420e+00 2.092360000000000220e+00 2.592630000000000212e+00 5.514199999999999768e+00 2.610199999999999854e+00 6.868199999999999861e+00 5.480559999999999654e+00 8.021470000000000766e+00 2.381409999999999805e+00 5.156649999999999956e+00 7.895669999999999966e+00 7.528760000000000119e+00 3.423540000000000028e+00 5.154029999999999667e+00 2.615330000000000155e+00 2.530320000000000125e+00 5.130460000000000242e+00 7.425910000000000011e+00 2.841569999999999929e+00 1.075990999999999964e+01 2.296139999999999848e+00 2.687009999999999899e+00 3.567299999999999915e-01 7.886519999999999975e+00 7.901769999999999960e+00 5.168940000000000090e+00 2.424770000000000092e+00 7.425130000000000230e+00 5.666540000000000354e+00 8.394510000000000360e+00 8.126829999999999998e+00 1.053580999999999968e+01 3.014489999999999892e+00 7.242619999999999614e+00 1.075561000000000078e+01 7.899309999999999832e+00 2.462060000000000137e+00 2.404869999999999841e+00 4.970119999999999649e+00 2.395420000000000105e+00 2.488199999999999967e+00 1.038761000000000045e+01 2.566619999999999902e+00 7.929879999999999818e+00 4.843790000000000262e+00 2.703770000000000007e+00 7.721129999999999605e+00 1.013077999999999967e+01 7.990910000000000402e+00 2.713960000000000150e+00 5.077950000000000408e+00 7.650769999999999627e+00 2.147349999999999870e+00 1.031511000000000067e+01 8.404019999999999158e+00 8.087569999999999482e+00 5.500409999999999577e+00 8.031610000000000582e+00 8.264189999999999259e+00 3.013600000000000168e-01 1.013582000000000072e+01 5.377819999999999823e+00 5.150610000000000355e+00 4.723000000000000115e-02 5.654080000000000439e+00 3.520599999999999841e-01 1.042179999999999929e+01 1.087761000000000067e+01 5.361640000000000406e+00 1.045209999999999972e+01 2.149000000000000077e-01 1.152999999999999997e-01 5.485109999999999708e+00 5.338580000000000325e+00 5.236650000000000027e+00 5.177229999999999777e+00 5.143030000000000435e+00 1.046771000000000029e+01 5.188589999999999591e+00 1.045510999999999946e+01 4.944569999999999688e+00 5.284340000000000259e+00 1.030120999999999931e+01 8.040999999999999537e-02 4.690190000000000303e+00 3.993409999999999904e+00 3.924240000000000173e+00 3.501920000000000144e+00 5.097819999999999574e+00 9.541309999999999292e+00 4.635049999999999670e+00 9.928729999999999833e+00 2.673070000000000057e+00 4.366360000000000241e+00 1.014011999999999958e+01 8.470110000000000028e+00 8.839579999999999771e+00 4.273049999999999571e+00 3.972100000000000186e+00 8.520350000000000534e+00 3.349759999999999849e+00 8.901439999999999131e+00 9.981659999999999755e+00 1.009169999999999945e+01 1.711600000000000010e+00 8.616030000000000300e+00 9.422050000000000480e+00 7.119290000000000340e+00 3.539190000000000058e+00 4.663700000000000068e-01 6.850000000000000533e-01 4.486889999999999823e+00 8.678219999999999601e+00 4.723670000000000258e+00 4.501350000000000406e+00 6.396349999999999980e+00 1.385380000000000056e+00 3.859550000000000036e+00 3.623679999999999790e+00 6.338940000000000019e+00 9.227019999999999555e+00 3.934660000000000046e+00 1.261449999999999960e+00 9.313959999999999795e+00 1.486709999999999976e+00 6.393580000000000041e+00 9.595769999999999911e+00 7.549730000000000274e+00 1.437119999999999953e+00 9.635659999999999670e+00 6.870040000000000369e+00 6.569169999999999732e+00 3.506180000000000074e+00 1.531439999999999912e+00 3.628159999999999830e+00 3.270399999999999974e+00 2.205309999999999881e+00 8.670959999999999113e+00 3.864500000000000046e+00 6.673709999999999809e+00 3.618320000000000203e+00 3.091769999999999907e+00 7.901510000000000034e+00 8.021430000000000504e+00 8.590030000000000499e+00 1.318380000000000107e+00 3.553440000000000154e+00 8.897899999999999920e+00 4.007399999999999851e-01 9.359049999999999869e+00 9.377420000000000755e+00 9.445660000000000167e+00 4.290259999999999962e+00 8.932299999999999685e+00 6.251929999999999765e+00 9.502390000000000114e+00 4.144090000000000273e+00 3.335949999999999971e+00 1.262280000000000069e+00 4.022420000000000329e+00 1.012659999999999894e+00 6.300449999999999662e+00 5.041649999999999743e+00 8.377890000000000725e+00 3.412200000000000233e-01 3.877959999999999852e+00 6.318329999999999558e+00 6.174830000000000041e+00 9.715099999999999847e-01 1.051390000000000047e+00 4.290199999999999569e+00 8.514000000000000457e-01 1.609189999999999898e+00 9.313779999999999504e+00 1.052329999999999988e+00 6.740509999999999557e+00 3.921370000000000022e+00 8.577099999999999724e-01 6.921999999999999709e+00 9.496209999999999596e+00 6.407020000000000159e+00 9.100000000000000311e-01 3.999270000000000103e+00 6.222290000000000099e+00 1.053209999999999980e+00 9.177339999999999165e+00 6.540759999999999685e+00 6.056809999999999583e+00 3.502510000000000012e+00 5.890109999999999957e+00 6.675320000000000142e+00 9.089359999999999218e+00 1.110119999999999996e+00 4.119340000000000224e+00 6.208099999999999730e-01 5.837799999999999656e-01 3.804339999999999833e+00 6.076649999999999885e+00 1.700090000000000101e+00 9.238820000000000476e+00 9.768799999999999706e-01 1.081369999999999942e+00 9.232950000000000657e+00 5.962220000000000297e+00 6.772929999999999673e+00 3.417229999999999990e+00 2.956030000000000157e+00 6.269700000000000273e+00 4.052710000000000257e+00 8.360509999999999664e+00 7.092810000000000059e+00 9.379350000000000520e+00 1.835199999999999942e+00 5.911940000000000417e+00 9.412819999999999965e+00 6.609250000000000291e+00 1.956099999999999950e+00 3.719259999999999788e+00 3.362830000000000208e+00 1.014410000000000034e+00 4.483109999999999928e+00 8.474410000000000664e+00 1.828589999999999938e+00 9.341390000000000526e+00 3.337450000000000028e+00 1.237430000000000030e+00 9.685019999999999740e+00 8.756130000000000635e+00 6.539089999999999847e+00 3.898140000000000160e+00 5.688209999999999766e+00 6.440669999999999895e+00 3.752720000000000056e+00 5.075399999999999912e-01 6.822219999999999729e+00 9.100329999999999586e+00 4.002869999999999706e+00 7.009649999999999714e+00 9.244070000000000675e+00 9.473959999999999937e+00 9.458499999999999686e-01 1.411510000000000042e+00 1.510420000000000096e+00 1.599660000000000082e+00 1.570359999999999978e+00 7.017940000000000289e+00 1.882949999999999902e+00 6.493839999999999613e+00 1.411410000000000053e+00 1.688299999999999912e+00 6.568699999999999761e+00 6.446979999999999933e+00 6.465740000000000265e+00 8.762799999999999478e-01 1.113129999999999953e+00 7.013760000000000439e+00 1.305020000000000069e+00 6.839640000000000164e+00 6.968860000000000277e+00 6.688290000000000290e+00 1.021209999999999951e+00 6.943209999999999660e+00 6.639590000000000103e+00 5.973589999999999733e+00