-8.986656989000000522e+02
-8.845452514600000313e+02
-9.009332993399999623e+02
-8.833476451400000542e+02
-8.937821778799999493e+02
-8.999050766200000453e+02
-9.167448781399999689e+02
-8.805985117400000490e+02
-8.895054929000000357e+02
-8.958320469000000230e+02
-8.837479184999999688e+02
-9.008605563500000244e+02
-8.859176028299999643e+02
-8.767129351500000212e+02
-9.051089099600000054e+02
-8.937052085000000261e+02
-9.084975224800000433e+02
-9.043749068600000101e+02
-8.881576685999999654e+02
-8.972790750000000344e+02
-9.003295240300000160e+02
-9.167238769000000502e+02
-9.001288095899999462e+02
-8.833896335399999771e+02
-9.017502855999999838e+02
-9.025151795399999628e+02
-8.891398359999999457e+02
-9.120353323799999998e+02
-9.074268077599999742e+02
-8.973395544899999550e+02
-8.963053330599999526e+02
-8.990847086799999488e+02
-9.024815059200000178e+02
-9.025414748599999939e+02
-8.800331213499999876e+02
-8.968214859099999785e+02
-8.851245467600000438e+02
-9.005624246800000492e+02
-8.978171139199999971e+02
-8.989349649800000179e+02
-8.927488748099999611e+02
-9.025118249800000285e+02
-8.992557535900000403e+02
-8.869123884800000042e+02
-8.997169010300000309e+02
-9.005801411700000472e+02
-9.028751083199999812e+02
-9.104860573600000180e+02
-9.086486824900000556e+02
-8.965010428599999841e+02
-9.006269073299999945e+02
-8.886350460500000281e+02
-9.091015540099999725e+02
-9.042007060900000397e+02
-9.074902369699999554e+02
-8.941697298100000353e+02
-9.080482532600000241e+02
-9.163465299800000139e+02
-8.880645622499999945e+02
-8.785969612000000097e+02
-8.839071198699999741e+02
-9.044926414200000409e+02
-8.998311983900000541e+02
-8.911045150600000397e+02
-9.012089533199999778e+02
-8.937258530300000530e+02
-9.062980411700000332e+02
-8.884429272400000173e+02
-8.958107808299999988e+02
-9.071300534399999833e+02
-8.819669170800000302e+02
-9.020736176799999839e+02
-9.077347709399999758e+02
-8.786538138500000059e+02
-8.974534735600000204e+02
-8.936683942500000057e+02
-8.950670499899999868e+02
-9.077610029999999597e+02
-9.067807974099999910e+02
-8.911849479200000133e+02
-8.791936404699999912e+02
-9.120913318200000504e+02
-9.058378871899999467e+02
-9.046345866100000421e+02
-9.250497629899999765e+02
-8.875251411299999518e+02
-8.862610310000000027e+02
-8.918262458799999877e+02
-8.981341345399999909e+02
-8.882973072800000409e+02
-8.995377979400000186e+02
-8.885761143600000196e+02
-8.941920475299999680e+02
-8.909986928900000294e+02
-9.047146148299999595e+02
-8.953035049699999490e+02
-8.920932775400000310e+02
-8.861261748900000157e+02
-9.060324764199999663e+02
-9.024566025799999807e+02
-8.927618625100000145e+02
-8.987821685500000513e+02
-9.010797223399999893e+02
-8.872773703799999794e+02
-8.901988416599999709e+02
-8.912434474100000443e+02
-9.025764376099999708e+02
-8.927480326400000195e+02
-9.060854553200000510e+02
-9.043960138600000391e+02
-8.890093442600000344e+02
-8.892082602699999825e+02
-8.904822223700000450e+02
-8.855562054499999931e+02
-9.028706397099999776e+02
-8.786821882499999674e+02
-9.074854487600000539e+02
-9.030235426100000495e+02
-8.923765734099999918e+02
-9.062913292700000056e+02
-9.025588846199999580e+02
-8.819836646200000132e+02
-8.847331641099999615e+02
-8.982866075199999614e+02
-8.948423242999999729e+02
-9.063624372599999788e+02
-8.895042252399999825e+02
-8.840581902799999625e+02
-9.094417386999999735e+02
-8.865733069299999443e+02
-9.087692512800000486e+02
-8.974255544699999518e+02
-8.935958275100000492e+02
-8.950604043199999751e+02
-9.038238077500000145e+02
-8.848326713999999811e+02
-8.997557911799999601e+02
-9.072531332900000507e+02
-9.044185780999999906e+02
-9.027894128100000444e+02
-8.935226516400000492e+02
-8.945508932599999525e+02
-9.059695495700000265e+02
-8.931482476800000541e+02
-8.919617117499999495e+02
-9.002368086300000414e+02
-8.945240880200000220e+02
-8.799072483099999999e+02
-9.170162033999999949e+02
-9.076289420699999937e+02
-9.061710226200000307e+02
-8.925451847199999520e+02
-8.904144140299999890e+02
-9.117221978699999454e+02
-9.096246840899999597e+02
-8.956309124499999825e+02
-9.127467209999999795e+02
-8.900170449199999894e+02
-9.008219971400000077e+02
-8.804332997300000443e+02
-9.094611005000000432e+02
-9.061267249999999649e+02
-8.799603279699999803e+02
-8.876518981399999575e+02
-8.877320889799999577e+02
-9.044265036399999644e+02
-9.139662578300000177e+02
-9.009840967699999510e+02
-9.008605030100000022e+02
-9.059373263799999449e+02
-8.917272127899999532e+02
-9.075596657500000219e+02
-8.902701893800000335e+02
-8.857891766200000347e+02
-8.919485501499999600e+02
-9.024603075899999567e+02
-9.012503974300000209e+02
-9.038686220399999911e+02
-9.076757583400000158e+02
-8.905972908700000517e+02
-9.125677356200000077e+02
-8.890985032099999898e+02
-9.102425113399999645e+02
-8.954990756299999930e+02
-8.991968964200000300e+02
-9.068809941499999923e+02
-8.860381814400000167e+02
-9.030014172200000075e+02
-8.801772638300000153e+02
-8.920680434700000205e+02
-8.887479670000000169e+02
-9.088108190299999478e+02
-8.998103870600000391e+02
-9.069460238399999525e+02
-8.808808268000000226e+02
-9.071443669400000545e+02
-9.080746159799999759e+02
-8.946060026699999526e+02
-8.842243158999999650e+02
-9.018533011099999612e+02
