1.014162728500000021e+01 0.000000000000000000e+00 0.000000000000000000e+00 7.618162400000000334e-02 1.021770797799999997e+01 0.000000000000000000e+00 -2.327172400000000058e-02 9.871644300000000094e-02 1.056788622400000044e+01
1.010015200900000032e+01 0.000000000000000000e+00 0.000000000000000000e+00 -5.171465199999999984e-02 1.012372495900000047e+01 0.000000000000000000e+00 -5.670885500000000246e-02 3.902884899999999740e-02 1.053994055799999963e+01
1.019878749199999923e+01 0.000000000000000000e+00 0.000000000000000000e+00 -5.221968400000000232e-02 1.022259065000000078e+01 0.000000000000000000e+00 -5.726265900000000048e-02 3.940999500000000322e-02 1.064287090300000038e+01
1.015850349199999947e+01 0.000000000000000000e+00 0.000000000000000000e+00 7.630839400000000161e-02 1.023471078699999914e+01 0.000000000000000000e+00 -2.331044999999999992e-02 9.888071199999999561e-02 1.058547174799999979e+01
1.007753126100000074e+01 0.000000000000000000e+00 0.000000000000000000e+00 7.570014899999999436e-02 1.015313111699999915e+01 0.000000000000000000e+00 -2.312464499999999923e-02 9.809254600000000268e-02 1.050109620399999955e+01
1.033085114500000046e+01 0.000000000000000000e+00 0.000000000000000000e+00 -5.289587400000000245e-02 1.035496252799999972e+01 0.000000000000000000e+00 -5.800414999999999738e-02 3.992031299999999894e-02 1.078068497299999962e+01
1.030707869099999918e+01 0.000000000000000000e+00 0.000000000000000000e+00 -5.277415500000000315e-02 1.033113459099999965e+01 0.000000000000000000e+00 -5.787067600000000284e-02 3.982845200000000030e-02 1.075587739999999926e+01
1.020287147800000049e+01 0.000000000000000000e+00 0.000000000000000000e+00 7.664167600000000580e-02 1.027941161500000078e+01 0.000000000000000000e+00 -2.341226000000000071e-02 9.931258099999999700e-02 1.063170454900000017e+01
1.014964960600000055e+01 0.000000000000000000e+00 0.000000000000000000e+00 -5.196808800000000256e-02 1.017333807900000053e+01 0.000000000000000000e+00 -5.698676600000000120e-02 3.922011699999999879e-02 1.059159341700000034e+01
1.024197433199999985e+01 0.000000000000000000e+00 0.000000000000000000e+00 7.693540799999999680e-02 1.031880781099999922e+01 0.000000000000000000e+00 -2.350198800000000143e-02 9.969319899999999623e-02 1.067245091999999929e+01
1.024491476999999939e+01 0.000000000000000000e+00 0.000000000000000000e+00 7.695749600000000024e-02 1.032177030699999953e+01 0.000000000000000000e+00 -2.350873499999999935e-02 9.972182100000000216e-02 1.067551494599999984e+01
1.015454448999999926e+01 0.000000000000000000e+00 0.000000000000000000e+00 -5.199315100000000134e-02 1.017824438699999945e+01 0.000000000000000000e+00 -5.701425000000000243e-02 3.923903200000000008e-02 1.059670143800000019e+01
1.022068898000000026e+01 0.000000000000000000e+00 0.000000000000000000e+00 -5.233182299999999953e-02 1.024454325399999988e+01 0.000000000000000000e+00 -5.738562800000000103e-02 3.949462699999999743e-02 1.066572604199999930e+01
1.024476527400000059e+01 0.000000000000000000e+00 0.000000000000000000e+00 7.695637299999999459e-02 1.032161969000000035e+01 0.000000000000000000e+00 -2.350839199999999948e-02 9.972036600000000472e-02 1.067535916799999995e+01
1.004899191900000055e+01 0.000000000000000000e+00 0.000000000000000000e+00 7.548576799999999476e-02 1.012437767800000010e+01 0.000000000000000000e+00 -2.305915600000000079e-02 9.781475000000000586e-02 1.047135733600000052e+01
1.005860558800000071e+01 0.000000000000000000e+00 0.000000000000000000e+00 -5.150192600000000342e-02 1.008208157199999988e+01 0.000000000000000000e+00 -5.647558600000000123e-02 3.886830599999999830e-02 1.049658509100000003e+01
1.004311899300000022e+01 0.000000000000000000e+00 0.000000000000000000e+00 7.544165199999999794e-02 1.011846069399999948e+01 0.000000000000000000e+00 -2.304567999999999894e-02 9.775758399999999460e-02 1.046523756700000085e+01
1.016211801600000086e+01 0.000000000000000000e+00 0.000000000000000000e+00 7.633554600000000412e-02 1.023835242700000059e+01 0.000000000000000000e+00 -2.331874399999999889e-02 9.891589500000000368e-02 1.058923819399999999e+01
1.026549551099999924e+01 0.000000000000000000e+00 0.000000000000000000e+00 -5.256124100000000160e-02 1.028945436000000058e+01 0.000000000000000000e+00 -5.763720099999999902e-02 3.966776699999999961e-02 1.071248357400000017e+01
1.021098233700000080e+01 0.000000000000000000e+00 0.000000000000000000e+00 7.670260299999999420e-02 1.028758331999999953e+01 0.000000000000000000e+00 -2.343087199999999842e-02 9.939153000000000571e-02 1.064015631200000023e+01
1.020082693600000034e+01 0.000000000000000000e+00 0.000000000000000000e+00 7.662631799999999882e-02 1.027735173499999988e+01 0.000000000000000000e+00 -2.340756800000000012e-02 9.929267899999999480e-02 1.062957407400000065e+01
1.030221323199999972e+01 0.000000000000000000e+00 0.000000000000000000e+00 7.738790900000000472e-02 1.037949861200000079e+01 0.000000000000000000e+00 -2.364021700000000156e-02 1.002795519999999940e-01 1.073522169800000015e+01
1.038203488999999990e+01 0.000000000000000000e+00 0.000000000000000000e+00 -5.315794399999999864e-02 1.040626573199999960e+01 0.000000000000000000e+00 -5.829152900000000165e-02 4.011809699999999840e-02 1.083409739899999913e+01
1.033250887400000018e+01 0.000000000000000000e+00 0.000000000000000000e+00 -5.290436200000000339e-02 1.035662412599999982e+01 0.000000000000000000e+00 -5.801345799999999692e-02 3.992671899999999940e-02 1.078241488299999951e+01
1.030412925799999968e+01 0.000000000000000000e+00 0.000000000000000000e+00 7.740230200000000615e-02 1.038142901199999990e+01 0.000000000000000000e+00 -2.364461299999999835e-02 1.002982020000000030e-01 1.073721825700000032e+01
1.033108086000000014e+01 0.000000000000000000e+00 0.000000000000000000e+00 -5.289705000000000101e-02 1.035519277899999935e+01 0.000000000000000000e+00 -5.800543999999999839e-02 3.992120100000000338e-02 1.078092469000000087e+01
1.017329697099999919e+01 0.000000000000000000e+00 0.000000000000000000e+00 7.641951900000000519e-02 1.024961524399999924e+01 0.000000000000000000e+00 -2.334439599999999990e-02 9.902470900000000242e-02 1.060088700600000067e+01
1.032649485900000030e+01 0.000000000000000000e+00 0.000000000000000000e+00 7.757030700000000500e-02 1.040396239600000072e+01 0.000000000000000000e+00 -2.369593500000000130e-02 1.005159040000000031e-01 1.076052389800000064e+01
1.037747379700000039e+01 0.000000000000000000e+00 0.000000000000000000e+00 -5.313459100000000185e-02 1.040169399300000030e+01 0.000000000000000000e+00 -5.826591999999999882e-02 4.010047199999999812e-02 1.082933770300000020e+01
1.013949638699999944e+01 0.000000000000000000e+00 0.000000000000000000e+00 7.616561700000000490e-02 1.021556109399999990e+01 0.000000000000000000e+00 -2.326683499999999960e-02 9.869570099999999679e-02 1.056566576300000015e+01
1.034650041099999918e+01 0.000000000000000000e+00 0.000000000000000000e+00 -5.297600100000000173e-02 1.037064831900000073e+01 0.000000000000000000e+00 -5.809201600000000326e-02 3.998078499999999785e-02 1.079701565100000060e+01
1.006659300699999982e+01 0.000000000000000000e+00 0.000000000000000000e+00 7.561798299999999973e-02 1.014211080599999981e+01 0.000000000000000000e+00 -2.309954499999999911e-02 9.798607500000000581e-02 1.048969820900000016e+01
1.010711255700000066e+01 0.000000000000000000e+00 0.000000000000000000e+00 7.592235699999999587e-02 1.018293432599999981e+01 0.000000000000000000e+00 -2.319252399999999908e-02 9.838048400000000415e-02 1.053192081999999985e+01
1.027990773700000027e+01 0.000000000000000000e+00 0.000000000000000000e+00 7.722035500000000441e-02 1.035702578599999946e+01 0.000000000000000000e+00 -2.358903299999999884e-02 1.000624350000000051e-01 1.071197869000000047e+01
1.020847653899999941e+01 0.000000000000000000e+00 0.000000000000000000e+00 7.668378000000000694e-02 1.028505872400000065e+01 0.000000000000000000e+00 -2.342512199999999961e-02 9.936713899999999322e-02 1.063754519399999943e+01
1.008418363700000064e+01 0.000000000000000000e+00 0.000000000000000000e+00 7.575012000000000412e-02 1.015983339900000004e+01 0.000000000000000000e+00 -2.313990999999999965e-02 9.815729800000000393e-02 1.050802818400000049e+01
1.003793272100000067e+01 0.000000000000000000e+00 0.000000000000000000e+00 7.540269400000000621e-02 1.011323551599999959e+01 0.000000000000000000e+00 -2.303377900000000075e-02 9.770710200000000401e-02 1.045983331300000074e+01
1.024466142099999999e+01 0.000000000000000000e+00 0.000000000000000000e+00 -5.245456700000000055e-02 1.026857164499999975e+01 0.000000000000000000e+00 -5.752022500000000121e-02 3.958725999999999912e-02 1.069074230999999919e+01
1.008293812199999984e+01 0.000000000000000000e+00 0.000000000000000000e+00 7.574076400000000209e-02 1.015857853900000052e+01 0.000000000000000000e+00 -2.313705200000000170e-02 9.814517500000000116e-02 1.050673031800000068e+01
1.016019972600000010e+01 0.000000000000000000e+00 0.000000000000000000e+00 7.632113599999999776e-02 1.023641974599999926e+01 0.000000000000000000e+00 -2.331434199999999832e-02 9.889722300000000632e-02 1.058723927600000003e+01
1.026606709300000020e+01 0.000000000000000000e+00 0.000000000000000000e+00 -5.256416800000000139e-02 1.029002727499999992e+01 0.000000000000000000e+00 -5.764041000000000303e-02 3.966997600000000262e-02 1.071308004399999980e+01
1.036111627000000013e+01 0.000000000000000000e+00 0.000000000000000000e+00 7.783037600000000666e-02 1.043884353099999984e+01 0.000000000000000000e+00 -2.377537999999999874e-02 1.008529019999999943e-01 1.079660046899999948e+01
1.013234949199999946e+01 0.000000000000000000e+00 0.000000000000000000e+00 7.611193099999999379e-02 1.020836058499999943e+01 0.000000000000000000e+00 -2.325043499999999985e-02 9.862613400000000419e-02 1.055821848000000074e+01
1.039742218199999968e+01 0.000000000000000000e+00 0.000000000000000000e+00 -5.323673000000000294e-02 1.042168893600000068e+01 0.000000000000000000e+00 -5.837792399999999771e-02 4.017755600000000316e-02 1.085015469600000060e+01
1.007373202499999998e+01 0.000000000000000000e+00 0.000000000000000000e+00 7.567161000000000026e-02 1.014930337999999921e+01 0.000000000000000000e+00 -2.311592700000000139e-02 9.805556499999999731e-02 1.049713728400000079e+01
1.038344264400000050e+01 0.000000000000000000e+00 0.000000000000000000e+00 7.799808599999999426e-02 1.046133739399999918e+01 0.000000000000000000e+00 -2.382661200000000049e-02 1.010702220000000012e-01 1.081986523399999989e+01
1.013303641599999949e+01 0.000000000000000000e+00 0.000000000000000000e+00 7.611709099999999784e-02 1.020905266199999950e+01 0.000000000000000000e+00 -2.325201099999999951e-02 9.863282099999999553e-02 1.055893427500000037e+01
1.007776497799999937e+01 0.000000000000000000e+00 0.000000000000000000e+00 7.570190400000000042e-02 1.015336658700000072e+01 0.000000000000000000e+00 -2.312518100000000160e-02 9.809481999999999924e-02 1.050133974399999914e+01
1.030622457199999964e+01 0.000000000000000000e+00 0.000000000000000000e+00 -5.276978100000000171e-02 1.033027847900000040e+01 0.000000000000000000e+00 -5.786588100000000096e-02 3.982515200000000255e-02 1.075498608999999917e+01
1.022952372099999963e+01 0.000000000000000000e+00 0.000000000000000000e+00 -5.237705899999999665e-02 1.025339861399999997e+01 0.000000000000000000e+00 -5.743523200000000273e-02 3.952876599999999990e-02 1.067494547199999921e+01
1.030321080799999933e+01 0.000000000000000000e+00 0.000000000000000000e+00 7.739540300000000150e-02 1.038050367199999968e+01 0.000000000000000000e+00 -2.364250600000000063e-02 1.002892620000000040e-01 1.073626120399999984e+01
1.036399685499999990e+01 0.000000000000000000e+00 0.000000000000000000e+00 7.785201399999999716e-02 1.044174572500000053e+01 0.000000000000000000e+00 -2.378198999999999938e-02 1.008809410000000018e-01 1.079960212599999991e+01
1.021450894500000039e+01 0.000000000000000000e+00 0.000000000000000000e+00 7.672909399999999769e-02 1.029113638399999964e+01 0.000000000000000000e+00 -2.343896399999999963e-02 9.942585700000000637e-02 1.064383114600000013e+01
1.040725037900000061e+01 0.000000000000000000e+00 0.000000000000000000e+00 -5.328705200000000142e-02 1.043154007100000058e+01 0.000000000000000000e+00 -5.843310599999999855e-02 4.021553399999999723e-02 1.086041084000000012e+01
1.029591051899999954e+01 0.000000000000000000e+00 0.000000000000000000e+00 7.734056500000000001e-02 1.037314861700000002e+01 0.000000000000000000e+00 -2.362575399999999881e-02 1.002182030000000057e-01 1.072865407900000001e+01
1.019861670899999950e+01 0.000000000000000000e+00 0.000000000000000000e+00 7.660971499999999490e-02 1.027512492700000024e+01 0.000000000000000000e+00 -2.340249599999999833e-02 9.927116499999999455e-02 1.062727094999999977e+01
1.005182690500000042e+01 0.000000000000000000e+00 0.000000000000000000e+00 7.550706299999999926e-02 1.012723393199999933e+01 0.000000000000000000e+00 -2.306566200000000066e-02 9.784234499999999723e-02 1.047431147800000062e+01
1.039737633500000058e+01 0.000000000000000000e+00 0.000000000000000000e+00 7.810275299999999699e-02 1.047537561200000056e+01 0.000000000000000000e+00 -2.385858500000000160e-02 1.012058490000000005e-01 1.083438456600000066e+01
1.011873013599999993e+01 0.000000000000000000e+00 0.000000000000000000e+00 7.600962599999999680e-02 1.019463905900000000e+01 0.000000000000000000e+00 -2.321918300000000088e-02 9.849356700000000409e-02 1.054402669399999937e+01
1.010952181899999935e+01 0.000000000000000000e+00 0.000000000000000000e+00 7.594045500000000393e-02 1.018536166200000004e+01 0.000000000000000000e+00 -2.319805299999999973e-02 9.840393499999999793e-02 1.053443134499999978e+01
1.003309143799999958e+01 0.000000000000000000e+00 0.000000000000000000e+00 7.536632699999999685e-02 1.010835791400000083e+01 0.000000000000000000e+00 -2.302266999999999855e-02 9.765997799999999451e-02 1.045478854699999971e+01
1.025874020400000042e+01 0.000000000000000000e+00 0.000000000000000000e+00 7.706135000000000068e-02 1.033569945800000056e+01 0.000000000000000000e+00 -2.354045999999999916e-02 9.985639500000000057e-02 1.068992147300000006e+01
1.014220352599999941e+01 0.000000000000000000e+00 0.000000000000000000e+00 7.618595200000000123e-02 1.021828854199999981e+01 0.000000000000000000e+00 -2.327304700000000157e-02 9.872205200000000458e-02 1.056848668499999988e+01
1.035227336800000053e+01 0.000000000000000000e+00 0.000000000000000000e+00 7.776394999999999835e-02 1.042993429000000027e+01 0.000000000000000000e+00 -2.375508800000000059e-02 1.007668270000000033e-01 1.078738589299999973e+01
1.010040261400000006e+01 0.000000000000000000e+00 0.000000000000000000e+00 7.587195300000000586e-02 1.017617404699999994e+01 0.000000000000000000e+00 -2.317712699999999876e-02 9.831516999999999340e-02 1.052492885400000056e+01
1.030762977400000047e+01 0.000000000000000000e+00 0.000000000000000000e+00 7.742859700000000178e-02 1.038495578899999927e+01 0.000000000000000000e+00 -2.365264599999999939e-02 1.003322749999999985e-01 1.074086590199999947e+01
1.037125904400000032e+01 0.000000000000000000e+00 0.000000000000000000e+00 7.790656599999999654e-02 1.044906239400000025e+01 0.000000000000000000e+00 -2.379865399999999895e-02 1.009516290000000011e-01 1.080716954999999935e+01
1.022178825199999963e+01 0.000000000000000000e+00 0.000000000000000000e+00 7.678377499999999856e-02 1.029847029899999988e+01 0.000000000000000000e+00 -2.345566799999999896e-02 9.949671200000000104e-02 1.065141640699999925e+01
1.037016119900000000e+01 0.000000000000000000e+00 0.000000000000000000e+00 -5.309714900000000321e-02 1.039436432900000007e+01 0.000000000000000000e+00 -5.822486300000000170e-02 4.007221500000000131e-02 1.082170669499999960e+01
1.038068998199999982e+01 0.000000000000000000e+00 0.000000000000000000e+00 -5.315105800000000102e-02 1.040491768499999914e+01 0.000000000000000000e+00 -5.828397800000000017e-02 4.011289999999999994e-02 1.083269392999999958e+01
1.004758804999999988e+01 0.000000000000000000e+00 0.000000000000000000e+00 -5.144551399999999775e-02 1.007103831999999954e+01 0.000000000000000000e+00 -5.641372599999999737e-02 3.882573300000000116e-02 1.048508781900000031e+01
1.016962806699999966e+01 0.000000000000000000e+00 0.000000000000000000e+00 7.639195899999999539e-02 1.024591881699999973e+01 0.000000000000000000e+00 -2.333597700000000080e-02 9.898899599999999577e-02 1.059706389599999987e+01
1.013657035600000000e+01 0.000000000000000000e+00 0.000000000000000000e+00 7.614363700000000013e-02 1.021261311299999974e+01 0.000000000000000000e+00 -2.326011999999999871e-02 9.866721900000000045e-02 1.056261674900000003e+01
1.038809313400000001e+01 0.000000000000000000e+00 0.000000000000000000e+00 7.803301999999999461e-02 1.046602277100000045e+01 0.000000000000000000e+00 -2.383728300000000078e-02 1.011154890000000028e-01 1.082471118700000012e+01
1.031532724700000081e+01 0.000000000000000000e+00 0.000000000000000000e+00 7.748641900000000082e-02 1.039271100700000083e+01 0.000000000000000000e+00 -2.367030900000000049e-02 1.004072010000000015e-01 1.074888690400000080e+01
1.014727066100000030e+01 0.000000000000000000e+00 0.000000000000000000e+00 7.622401600000000554e-02 1.022339368899999990e+01 0.000000000000000000e+00 -2.328467400000000173e-02 9.877137399999999512e-02 1.057376679400000086e+01
1.008042894799999978e+01 0.000000000000000000e+00 0.000000000000000000e+00 -5.161366600000000249e-02 1.010395586599999973e+01 0.000000000000000000e+00 -5.659811599999999693e-02 3.895263599999999882e-02 1.051935869999999973e+01
1.012767254999999977e+01 0.000000000000000000e+00 0.000000000000000000e+00 7.607679900000000051e-02 1.020364855699999929e+01 0.000000000000000000e+00 -2.323970300000000044e-02 9.858060999999999907e-02 1.055334496300000069e+01
1.018468498999999916e+01 0.000000000000000000e+00 0.000000000000000000e+00 7.650506399999999763e-02 1.026108869399999968e+01 0.000000000000000000e+00 -2.337052800000000152e-02 9.913555699999999915e-02 1.061275367100000011e+01
1.018934975300000012e+01 0.000000000000000000e+00 0.000000000000000000e+00 7.654010399999999770e-02 1.026578845100000059e+01 0.000000000000000000e+00 -2.338123199999999832e-02 9.918096299999999699e-02 1.061761449699999993e+01
1.036408603099999937e+01 0.000000000000000000e+00 0.000000000000000000e+00 7.785268400000000533e-02 1.044183557000000029e+01 0.000000000000000000e+00 -2.378219499999999903e-02 1.008818090000000028e-01 1.079969505000000041e+01
1.028376595099999946e+01 0.000000000000000000e+00 0.000000000000000000e+00 -5.265478900000000045e-02 1.030776744099999931e+01 0.000000000000000000e+00 -5.773978300000000285e-02 3.973836800000000308e-02 1.073154955899999941e+01
1.019621663500000075e+01 0.000000000000000000e+00 0.000000000000000000e+00 -5.220651999999999932e-02 1.022001379199999960e+01 0.000000000000000000e+00 -5.724822400000000033e-02 3.940006100000000011e-02 1.064018810299999984e+01
1.018717692399999919e+01 0.000000000000000000e+00 0.000000000000000000e+00 -5.216023499999999924e-02 1.021095298300000032e+01 0.000000000000000000e+00 -5.719746900000000078e-02 3.936512999999999818e-02 1.063075477900000010e+01
1.049369272799999919e+01 0.000000000000000000e+00 0.000000000000000000e+00 -5.372965300000000222e-02 1.051818416999999961e+01 0.000000000000000000e+00 -5.891844899999999774e-02 4.054956299999999680e-02 1.095061712799999931e+01
1.010829240700000042e+01 0.000000000000000000e+00 0.000000000000000000e+00 7.593121999999999372e-02 1.018412302800000013e+01 0.000000000000000000e+00 -2.319523199999999966e-02 9.839196799999999632e-02 1.053315026099999940e+01
1.020502199999999959e+01 0.000000000000000000e+00 0.000000000000000000e+00 -5.225160499999999958e-02 1.022883970800000064e+01 0.000000000000000000e+00 -5.729766299999999868e-02 3.943408600000000014e-02 1.064937687900000007e+01
1.009134869300000048e+01 0.000000000000000000e+00 0.000000000000000000e+00 7.580394199999999916e-02 1.016705220499999918e+01 0.000000000000000000e+00 -2.315635099999999863e-02 9.822704100000000105e-02 1.051549439200000080e+01
1.045543703399999913e+01 0.000000000000000000e+00 0.000000000000000000e+00 -5.353377699999999767e-02 1.047983919099999994e+01 0.000000000000000000e+00 -5.870365699999999937e-02 4.040173600000000059e-02 1.091069567599999957e+01
1.009902661599999973e+01 0.000000000000000000e+00 0.000000000000000000e+00 -5.170888900000000094e-02 1.012259693899999924e+01 0.000000000000000000e+00 -5.670253599999999783e-02 3.902450100000000310e-02 1.053876616199999994e+01
1.026327737499999948e+01 0.000000000000000000e+00 0.000000000000000000e+00 7.709543200000000540e-02 1.034027066600000033e+01 0.000000000000000000e+00 -2.355087200000000047e-02 9.990055899999999989e-02 1.069464934300000003e+01
1.018378513200000057e+01 0.000000000000000000e+00 0.000000000000000000e+00 7.649830400000000308e-02 1.026018208600000037e+01 0.000000000000000000e+00 -2.336846299999999904e-02 9.912679800000000208e-02 1.061181599200000036e+01
1.009532932099999947e+01 0.000000000000000000e+00 0.000000000000000000e+00 7.583384399999999748e-02 1.017106269499999982e+01 0.000000000000000000e+00 -2.316548599999999902e-02 9.826578800000000669e-02 1.051964232799999976e+01
1.035614019199999980e+01 0.000000000000000000e+00 0.000000000000000000e+00 7.779299600000000314e-02 1.043383012299999990e+01 0.000000000000000000e+00 -2.376396100000000011e-02 1.008044659999999954e-01 1.079141524299999944e+01
1.006467394599999921e+01 0.000000000000000000e+00 0.000000000000000000e+00 7.560356799999999600e-02 1.014017734900000001e+01 0.000000000000000000e+00 -2.309514199999999906e-02 9.796739499999999878e-02 1.048769848799999949e+01
1.037405817299999988e+01 0.000000000000000000e+00 0.000000000000000000e+00 -5.311710199999999937e-02 1.039827039799999930e+01 0.000000000000000000e+00 -5.824674299999999666e-02 4.008727299999999966e-02 1.082577335400000074e+01
1.030461000999999932e+01 0.000000000000000000e+00 0.000000000000000000e+00 -5.276151500000000188e-02 1.032866014800000087e+01 0.000000000000000000e+00 -5.785681499999999894e-02 3.981891299999999745e-02 1.075330122599999960e+01
1.009545214799999968e+01 0.000000000000000000e+00 0.000000000000000000e+00 7.583476699999999737e-02 1.017118644399999994e+01 0.000000000000000000e+00 -2.316576700000000030e-02 9.826698400000000166e-02 1.051977031700000076e+01
1.034794454999999935e+01 0.000000000000000000e+00 0.000000000000000000e+00 -5.298339500000000257e-02 1.037209582800000085e+01 0.000000000000000000e+00 -5.810012400000000299e-02 3.998636600000000235e-02 1.079852267200000071e+01
1.005067447699999938e+01 0.000000000000000000e+00 0.000000000000000000e+00 7.549840700000000349e-02 1.012607285900000065e+01 0.000000000000000000e+00 -2.306301700000000163e-02 9.783112700000000383e-02 1.047311061299999935e+01
