-3.953289999999999860e-01 1.599760999999999989e+00 1.811369999999999925e+00 2.355020999999999809e+00 4.345040000000000013e-01 3.051119999999999943e-01 1.347199000000000035e+00 -1.098176999999999959e+00 -4.865900000000000086e-02 -7.472010000000000041e-01 2.218671000000000060e+00 -1.791568000000000049e+00 1.037417000000000034e+00 1.051735000000000086e+00 -2.079137999999999931e+00 1.570928000000000102e+00 6.541620000000000212e-01 1.189901000000000098e+00 -2.820327999999999946e+00 -1.539498000000000033e+00 2.344409999999999883e+00 1.517139999999999933e+00 -2.085828999999999933e+00 -1.008836000000000066e+00 3.518319999999999781e-01 1.210598999999999981e+00 -1.736113999999999935e+00 -2.725409999999999777e-01 4.429099999999999704e-02 8.048650000000000526e-01 -5.912100000000000133e-01 1.454898999999999942e+00 3.186419999999999808e-01 -8.168599999999999473e-02 1.239884999999999904e+00 1.879285000000000094e+00 3.650939999999999741e-01 1.750000000000000167e-02 4.960629999999999762e-01 -1.332559000000000049e+00 -2.968414000000000108e+00 -4.804674999999999585e+00 -8.906140000000000168e-01 -1.769130000000000091e+00 2.007849999999999913e+00 -5.697100000000000081e-02 1.821959000000000106e+00 5.205400000000000027e-01 -1.030407000000000073e+00 -3.708410999999999902e+00 -3.468602000000000185e+00 -2.504881999999999831e+00 -2.208035999999999888e+00 -4.286533000000000371e+00 -1.684285000000000032e+00 -2.758936999999999973e+00 -6.188150000000000039e-01 -9.221380000000000132e-01 -9.738160000000000149e-01 -8.825889999999999569e-01 -6.174809999999999466e-01 1.395887000000000100e+00 -4.176599999999999757e-02 -6.837330000000000352e-01 -1.582095999999999947e+00 -1.000861999999999918e+00 6.937200000000000033e-01 5.895510000000000472e-01 1.559106000000000103e+00 -5.975199999999999956e-02 6.062910000000000244e-01 -2.131466000000000083e+00 1.467154000000000069e+00 -2.107670000000000099e-01 1.302604000000000095e+00 2.952130000000000032e-01 -2.983419000000000043e+00 -2.225171000000000010e+00 -5.368429999999999591e-01 -1.670363000000000042e+00 -6.338500000000000245e-01 -8.432159999999999656e-01 -2.371996999999999911e+00 2.748787000000000091e+00 1.976348999999999911e+00 1.493519999999999959e+00 6.239780000000000326e-01 1.373094000000000037e+00 1.258801000000000059e+00 -5.774741999999999820e+00 1.816608999999999918e+00 -1.453113000000000099e+00 4.197087999999999930e+00 -1.181650000000000061e-01 3.642540000000000222e-01 1.358590000000000075e-01 1.354697999999999958e+00 -7.334990000000000121e-01 2.847879999999999856e-01 -1.523571999999999926e+00 1.487468999999999930e+00 7.649059999999999748e-01 -7.071950000000000180e-01 1.698952999999999935e+00 2.644684999999999953e+00 -1.055822000000000038e+00 1.472313999999999901e+00 7.702120000000000077e-01 2.226210000000000133e-01 7.515960000000000418e-01 2.732459999999999889e-01 -1.180973999999999968e+00 5.619330000000000158e-01 -1.573959000000000108e+00 1.047206000000000081e+00 -9.454369999999999719e-01 -1.270688999999999957e+00 -1.317973999999999979e+00 7.998929999999999652e-01 -1.108654999999999946e+00 1.100319000000000047e+00 1.125150000000000095e+00 -4.527349999999999985e-01 9.951590000000000158e-01 4.270590000000000219e-01 8.451480000000000103e-01 -2.612899999999999945e-02 -1.216580999999999912e+00 1.690241000000000104e+00 -6.176460000000000283e-01 -3.944759999999999933e-01 2.610593999999999859e+00 -7.795220000000000482e-01 -1.322875999999999941e+00 8.186299999999999688e-01 -1.881019999999999914e-01 -4.553800000000000070e-01 -5.060280000000000333e-01 6.282429999999999959e-01 9.317799999999999694e-02 1.553426999999999891e+00 2.021583999999999826e+00 -2.504485999999999990e+00 -1.051333999999999991e+00 1.274100999999999928e+00 -1.039538999999999991e+00 -1.705433999999999894e+00 -1.290081999999999951e+00 -1.121957000000000093e+00 -1.166301000000000032e+00 -8.164150000000000018e-01 3.116200000000000081e-01 3.568459999999999965e-01 -1.823559999999999903e-01 1.311628000000000016e+00 1.762731000000000048e+00 -1.042740000000000000e+00 -8.456219999999999848e-01 -3.447689999999999921e-01 1.181208000000000036e+00 -2.367209999999999870e-01 1.939567000000000041e+00 4.912386999999999837e+00 1.019365000000000077e+00 -1.035819999999999935e-01 1.528264999999999985e+00 -1.008990000000000026e-01 1.389531000000000072e+00 2.454277999999999960e+00 3.414830999999999950e+00 -9.686679999999999735e-01 -7.042340000000000266e-01 7.712430000000000119e-01 -5.061670000000000336e-01 2.492624000000000173e+00 7.104660000000000419e-01 -1.334054999999999991e+00 -1.353099000000000052e+00 -1.229016000000000108e+00 2.028083000000000080e+00 -1.556559999999999944e+00 1.246901000000000037e+00 -2.690802000000000138e+00 -2.906449999999999978e+00 -2.023188000000000208e+00 2.189706000000000152e+00 2.028833000000000109e+00 -1.151998999999999995e+00 -1.148954999999999949e+00 -4.145809999999999773e-01 -1.163830000000000003e-01 -2.607430000000000025e-01 2.088500000000000079e-02 -9.595449999999999813e-01 -8.159049999999999914e-01 1.038631000000000082e+00 -1.090611999999999915e+00 3.174759999999999804e-01 1.115154999999999896e+00 1.098937000000000053e+00 -1.435030000000000028e+00 -1.070662999999999920e+00 9.338739999999999819e-01 1.413874000000000075e+00 -9.111380000000000035e-01 1.671554999999999902e+00 1.103693999999999953e+00 8.361880000000000424e-01 -1.267236999999999947e+00 -2.240910000000000124e-01 -3.770989999999999842e+00 3.051095999999999808e+00 2.763952000000000186e+00 -1.360907000000000089e+00 1.148109999999999964e+00 1.707462000000000035e+00 1.626748000000000083e+00 2.096310000000000118e-01 -1.983889000000000014e+00 -6.440500000000000114e-01 -2.244609999999999939e-01 9.606040000000000134e-01 -3.428323999999999927e+00 -8.577300000000000202e-02 1.424790000000000001e+00 -3.693389999999999729e-01 1.058319999999999955e-01 -6.154600000000000071e-01 4.961110000000000242e-01 -7.439999999999999392e-02 1.032508999999999899e+00 7.991500000000000270e-01 -4.950199999999999739e-02 4.889870000000000050e-01 8.872659999999999991e-01 1.983098000000000027e+00 7.019819999999999949e-01 -1.452600000000000002e-01 -4.427000000000000379e-03 -3.328990000000000005e-01 7.738410000000000011e-01 2.722011999999999876e+00 5.721589999999999732e-01 -4.285410000000000053e-01 2.386864999999999792e+00 -1.925634999999999986e+00 -5.683439999999999603e-01 -1.168822000000000028e+00 8.014400000000000690e-02 -9.623869999999999925e-01 -1.352211999999999970e+00 -8.075499999999999901e-01 -1.257546999999999970e+00 2.601620000000000044e-01 1.839840000000000086e-01 9.239400000000000390e-02 -2.849769999999999803e-01 5.705149999999999944e-01 6.426140000000000185e-01 7.440379999999999772e-01 3.168340000000000045e-01 -9.548900000000000443e-02 1.088510000000000033e-01 7.233530000000000237e-01 -1.302810000000000079e-01 -1.994355000000000100e+00 -4.868700000000000250e-01 1.112924999999999942e+00 2.035671999999999926e+00 2.340600999999999932e+00 -1.664938999999999947e+00 1.193324000000000051e+00 -1.945400999999999936e+00 8.122100000000000153e-02 -1.167175000000000074e+00 -1.359400000000000053e-01 7.269539999999999891e-01 1.738580000000000125e-01 -1.632548000000000110e+00 1.002615000000000034e+00 5.677600000000000008e-02 1.967579999999999885e-01
-9.894899999999999529e-02 3.296361999999999792e+00 -2.791544000000000025e+00 -3.619979999999999865e-01 4.336009999999999920e+00 -4.370180000000000176e-01 3.959487999999999897e+00 -2.917391999999999985e+00 -2.116566999999999865e+00 9.027770000000000516e-01 8.769500000000000073e-01 5.977599999999999580e-01 2.851540000000000186e-01 1.461637000000000075e+00 -1.376940999999999971e+00 2.623200000000000198e+00 1.444101000000000079e+00 5.023149999999999560e-01 -9.110129999999999617e-01 -2.805403000000000091e+00 -2.591269000000000045e+00 6.511280000000000401e-01 7.476540000000000408e-01 -1.247899999999999981e-01 1.663793000000000077e+00 1.846610000000000085e+00 -2.144982000000000166e+00 -2.248804999999999943e+00 -8.774790000000000090e-01 2.433168999999999915e+00 2.975994000000000028e+00 5.014410000000000256e-01 3.187420000000000253e-01 2.450391999999999904e+00 1.255762000000000045e+00 8.213770000000000238e-01 -1.012674999999999992e+00 -2.530930000000000124e+00 -2.489173000000000080e+00 -3.480679999999999885e-01 -1.071452999999999989e+00 -9.487229999999999830e-01 6.593069999999999764e-01 9.574439999999999618e-01 -2.690764999999999851e+00 -1.503204999999999902e+00 1.191078000000000081e+00 -1.285757000000000039e+00 -6.080179999999999474e-01 -1.265107999999999899e+00 -1.047700000000000020e-01 4.600279999999999925e-01 2.936603999999999992e+00 -1.916658999999999891e+00 -1.074427999999999939e+00 -6.348819999999999908e+00 -9.814299999999999413e-02 -7.019499999999999351e-02 -9.218960000000000488e-01 1.375045999999999990e+00 -1.506920999999999955e+00 -1.581390000000000073e+00 -1.177119999999999972e-01 -2.751284000000000063e+00 1.733862000000000014e+00 -1.761768000000000001e+00 6.194490000000000274e-01 -7.278800000000000547e-02 1.739860000000000018e-01 5.852020000000000000e-01 1.157113999999999976e+00 2.254074000000000133e+00 -3.454077999999999982e+00 -1.071924000000000099e+00 -9.717500000000000027e-01 -1.975413000000000086e+00 -3.189179999999999793e-01 -2.095660000000000023e-01 4.905630000000000268e-01 1.106333000000000011e+00 1.922323999999999922e+00 7.380719999999999503e-01 -1.401170000000000027e+00 -2.329340999999999884e+00 3.563549999999999773e-01 5.282310000000000061e-01 1.548883000000000010e+00 -2.110126999999999864e+00 -2.154678999999999789e+00 4.903319999999999901e-01 6.137219999999999898e-01 9.307950000000000390e-01 1.110150000000000026e-01 -1.698889000000000093e+00 -1.413124000000000047e+00 3.235187999999999953e+00 1.544580999999999982e+00 -2.088570999999999955e+00 -1.732579999999999953e-01 1.637750000000000039e-01 -6.527140000000000164e-01 7.013319999999999554e-01 -4.189184000000000019e+00 2.406515000000000182e+00 1.217986000000000013e+00 -7.905870000000000397e-01 -3.765430000000000166e-01 -2.969397999999999982e+00 9.314090000000000424e-01 -8.551560000000000272e-01 4.280499999999999861e-01 2.215870999999999924e+00 -1.286000000000000032e+00 1.028470999999999913e+00 -9.278619999999999646e-01 1.932129999999999903e+00 1.108351000000000086e+00 -2.181530000000000136e-01 -1.973000000000000032e-01 5.660589999999999788e-01 -1.169740000000000002e+00 -1.124808999999999948e+00 2.543563999999999936e+00 1.554445000000000077e+00 1.504264000000000046e+00 5.182050000000000267e-01 -5.601190000000000335e-01 6.278219999999999912e-01 -5.165000000000000147e-02 -3.362959999999999838e-01 -5.241949999999999665e-01 2.336838999999999889e+00 -1.399113000000000051e+00 -3.707730000000000192e-01 9.159499999999999587e-02 -8.532859999999999889e-01 -1.624007999999999896e+00 3.002823999999999938e+00 -3.290300000000000169e-02 9.516240000000000254e-01 1.088681000000000010e+00 1.774467000000000017e+00 -2.749130000000000074e+00 -2.404497999999999802e+00 -2.171740000000000059e-01 1.044335999999999931e+00 2.877430000000000265e-01 1.778297999999999934e+00 3.827039999999999886e-01 2.145100000000000132e-02 -5.682880000000000154e-01 7.641729999999999912e-01 6.138540000000000108e-01 -8.160619999999999541e-01 -1.809465000000000101e+00 -1.385909000000000058e+00 2.361013999999999946e+00 -9.526959999999999873e-01 6.675670000000000215e-01 -5.693749999999999645e-01 -2.474820000000000075e-01 1.288575999999999944e+00 2.993180000000000174e+00 1.387798000000000087e+00 1.150733999999999924e+00 5.081989999999999563e-01 -5.982150000000000523e-01 -1.977033000000000040e+00 2.336735000000000007e+00 1.788818999999999937e+00 3.170049999999999812e+00 -3.431953000000000031e+00 -2.070559999999999956e+00 -5.273729999999999807e-01 4.142572999999999617e+00 2.058950999999999976e+00 -1.041393999999999931e+00 1.485398999999999914e+00 5.087829999999999853e-01 1.106481999999999966e+00 -6.063220000000000276e-01 1.251969000000000110e+00 4.186949999999999839e-01 -1.244839000000000029e+00 -1.449379999999999891e+00 8.219100000000000295e-01 2.946779999999999955e+00 1.082621000000000056e+00 -1.173000000000000015e-01 -1.245875999999999983e+00 1.261879999999999946e-01 -2.110590999999999884e+00 2.217540000000000067e-01 9.226969999999999894e-01 -9.833950000000000191e-01 -1.803882999999999903e+00 2.688369999999999926e-01 -4.637649999999999828e-01 1.792078999999999978e+00 -1.980150999999999994e+00 2.845575000000000188e+00 -1.491683000000000092e+00 -1.088074999999999903e+00 9.090840000000000032e-01 -2.682209999999999872e-01 5.162700000000000067e-01 9.552159999999999540e-01 7.024280000000000523e-01 -7.186019999999999630e-01 3.058520000000000127e-01 -1.876597999999999988e+00 6.482700000000000129e-01 -4.808749999999999969e-01 -1.162663999999999920e+00 -5.153999999999999693e-01 -3.318949999999999956e-01 -3.531830000000000247e-01 -1.118346000000000062e+00 1.391111999999999904e+00 -3.233190000000000230e-01 1.532107000000000108e+00 9.265229999999999855e-01 -1.818746999999999892e+00 -4.245800000000000129e-01 -4.303859999999999908e-01 -3.633870000000000156e-01 3.734500000000000042e-01 4.789470000000000116e-01 -3.115720000000000156e-01 -7.040610000000000479e-01 1.194663000000000030e+00 1.858130999999999977e+00 4.707669999999999910e-01 1.454144000000000103e+00 -2.480855000000000032e+00 -9.099300000000000443e-02 1.026562999999999892e+00 -2.678405999999999842e+00 -1.398854999999999960e+00 5.120489999999999764e-01 8.873229999999999729e-01 6.208930000000000282e-01 -3.078495999999999899e+00 7.019670000000000076e-01 1.104462999999999973e+00 -3.370381000000000071e+00 -3.669040000000000079e-01 1.208712999999999926e+00 2.021323000000000203e+00 -1.589601000000000042e+00 2.273357999999999990e+00 -3.178011999999999837e+00 1.993290000000000062e-01 1.601598999999999995e+00 -6.328709999999999614e-01 1.184404999999999930e+00 3.377990000000000159e-01 -7.785480000000000178e-01 -2.366298000000000012e+00 -1.645753999999999939e+00 2.627800000000000136e-01 7.504370000000000207e-01 7.984499999999999931e-02 -2.998830000000000107e-01 1.433891999999999944e+00 -2.160931999999999853e+00 -6.213009999999999922e-01 2.040750000000000064e-01 7.267600000000000449e-02 2.001040000000000041e-01 2.315615999999999897e+00 1.004672000000000009e+00 -6.419529999999999959e-01 -8.210800000000000043e-02 -1.212909999999999960e-01 -1.395500000000000039e-02 -6.863900000000000556e-02 7.129100000000000437e-01 7.867650000000000476e-01 1.294477000000000100e+00 -1.794979999999999909e-01 -6.625720000000000498e-01
-3.280190000000000161e+00 3.488007000000000080e+00 6.799389999999999601e-01 2.737187000000000037e+00 -1.903022999999999909e+00 -2.030059999999999920e-01 -2.833814999999999973e+00 1.131655999999999995e+00 -1.420833999999999930e+00 -2.424078000000000177e+00 -1.994145000000000056e+00 -1.104932999999999943e+00 3.041166000000000036e+00 9.398570000000000535e-01 2.093220000000000081e+00 1.425070999999999977e+00 -1.224928000000000017e+00 1.800640000000000018e+00 1.030766999999999989e+00 2.044370000000000076e-01 1.034045000000000103e+00 -1.027409999999999934e+00 -4.112411999999999956e+00 -1.505400999999999989e+00 1.400748000000000104e+00 1.524261000000000088e+00 -2.071746000000000087e+00 1.021524000000000099e+00 8.011690000000000200e-01 -4.145901000000000280e+00 -7.514910000000000201e-01 6.581839999999999913e-01 4.730199999999999960e-01 -3.356396000000000157e+00 1.617226000000000052e+00 2.844701000000000146e+00 3.460790999999999951e+00 1.299299999999999934e-02 -8.103369999999999740e-01 -1.974599999999999966e-02 1.557055999999999996e+00 2.401161000000000101e+00 2.711600000000000121e-02 5.784639999999999782e-01 -1.302723000000000075e+00 -1.282280000000000086e+00 3.108082000000000011e+00 -1.767978000000000049e+00 -1.591604999999999936e+00 -7.132429999999999604e-01 -2.816020000000000190e-01 2.958000000000000126e-03 -2.814760000000000040e-01 -2.342210000000000125e-01 -4.560210000000000097e-01 7.270170000000000243e-01 -2.014199000000000073e+00 -7.166999999999999760e-02 -4.440330000000000110e-01 2.253700000000000148e-02 -1.348184999999999967e+00 1.426392000000000104e+00 -1.289490000000000025e+00 5.140709999999999447e-01 -2.448799999999999866e-01 3.352211000000000052e+00 2.054368000000000194e+00 -9.591119999999999646e-01 -2.057033999999999807e+00 5.159439999999999582e-01 -3.865699999999999692e-02 2.648578999999999795e+00 -3.851339999999999764e-01 -8.079140000000000210e-01 -2.673970999999999876e+00 -2.464290999999999787e+00 2.525306000000000051e+00 1.700655000000000028e+00 -2.349523000000000028e+00 -3.352450000000000152e+00 -4.512696000000000041e+00 -1.870457000000000036e+00 -1.159059999999999979e+00 2.187749999999999972e-01 3.399116999999999944e+00 3.360079999999999734e-01 1.433334000000000108e+00 3.676749000000000045e+00 7.845760000000000511e-01 2.896987000000000201e+00 -1.423460000000000003e-01 3.931259999999999755e-01 8.042249999999999677e-01 8.685239999999999627e-01 7.856819999999999915e-01 4.590989999999999793e-01 -1.340867000000000031e+00 2.704854000000000092e+00 2.137230999999999881e+00 2.105249000000000148e+00 -2.286767999999999912e+00 1.870659000000000072e+00 1.399369000000000085e+00 -4.277130000000000098e-01 1.665950999999999960e+00 1.220804000000000000e+00 -1.583383999999999903e+00 -1.302415000000000100e+00 -2.506314000000000153e+00 -1.026456999999999953e+00 -2.870613000000000081e+00 -7.387499999999999623e-02 4.091759999999999842e-01 2.045287000000000077e+00 6.295009999999999772e-01 1.048021000000000091e+00 -4.379569999999999852e-01 -1.227438000000000029e+00 7.072199999999999320e-02 1.347591999999999901e+00 1.094959999999999961e-01 -2.330419999999999991e-01 -2.084592999999999918e+00 -1.731343999999999994e+00 1.605760999999999994e+00 -1.016901000000000055e+00 1.859070000000000000e+00 -7.944290000000000518e-01 -1.808356999999999992e+00 -1.503733999999999904e+00 5.938830000000000497e-01 -1.902610000000000134e-01 -1.194320000000000048e+00 7.849150000000000293e-01 -1.846595999999999904e+00 -1.121396999999999977e+00 -6.604910000000000503e-01 2.810400000000000051e-02 -2.761642000000000152e+00 -3.177459999999999729e-01 -2.770870000000000277e-01 1.260507000000000044e+00 1.127003999999999895e+00 -1.054837000000000025e+00 2.317416000000000142e+00 5.809480000000000199e-01 3.286064000000000096e+00 1.894406999999999952e+00 2.564335999999999949e+00 5.735129999999999839e+00 1.509902999999999995e+00 -3.963539999999999841e-01 1.974124999999999908e+00 1.010920000000000041e+00 -3.758299999999999974e-01 1.204552999999999985e+00 8.102000000000000313e-01 6.613289999999999447e-01 -1.945959999999999912e-01 3.208547999999999956e+00 -2.834870000000000001e+00 -1.084657999999999900e+00 3.412069999999999825e-01 6.166000000000000369e-01 1.018666999999999989e+00 -2.226914999999999978e+00 -1.884999999999999870e-02 -2.670300000000000104e-02 1.195084000000000035e+00 3.712099999999999844e-01 -1.218914000000000053e+00 1.351131000000000082e+00 -9.496139999999999581e-01 2.622789999999999844e-01 4.665460000000000163e-01 3.108119999999999772e-01 8.227719999999999478e-01 1.642436999999999925e+00 2.356249000000000038e+00 -1.982305999999999901e+00 -1.474048000000000025e+00 -9.718729999999999869e-01 3.602600000000000247e-02 -1.613202999999999943e+00 -7.984339999999999771e-01 -8.201570000000000249e-01 1.506470000000000031e-01 7.325900000000000467e-02 -3.565729999999999733e-01 -8.198039999999999772e-01 -6.386500000000000510e-01 1.448331000000000035e+00 2.296219999999999928e-01 -8.870930000000000204e-01 -1.317490000000000050e-01 -6.396899999999999809e-01 -8.058349999999999680e-01 2.057789999999999897e-01 -9.654810000000000336e-01 -1.391604000000000063e+00 2.915280000000000094e-01 -2.661689999999999889e-01 -7.855800000000000283e-02 -1.015199999999999991e-01 -2.100239999999999885e-01 -5.592759999999999954e-01 1.822616999999999932e+00 8.935840000000000449e-01 1.946433999999999997e+00 1.038281000000000009e+00 -2.394976999999999911e+00 3.422720000000000207e-01 -1.387642999999999960e+00 5.055099999999999871e-02 1.993360999999999938e+00 7.524640000000000217e-01 6.974979999999999514e-01 8.447489999999999721e-01 9.743039999999999479e-01 1.578767999999999949e+00 1.057530000000000081e+00 -6.408960000000000212e-01 -8.700189999999999868e-01 -4.251619999999999844e-01 -4.729439999999999755e-01 -1.699559999999999960e-01 -2.823058000000000067e+00 -2.070962000000000192e+00 -4.103089999999999793e-01 8.090479999999999894e-01 2.631545000000000023e+00 -1.377002999999999977e+00 7.764980000000000215e-01 -2.002450000000000063e-01 -2.857600000000000071e-02 1.635575000000000001e+00 -2.129948999999999870e+00 -1.757890000000000008e-01 -7.961669999999999581e-01 -4.722970000000000224e-01 -1.286504000000000092e+00 -1.877870000000000095e-01 -4.179769999999999874e-01 9.887799999999999367e-02 2.089345999999999925e+00 4.155724000000000196e+00 3.455528000000000155e+00 -1.720116999999999896e+00 -2.887525000000000119e+00 -1.443265999999999938e+00 -3.094625999999999877e+00 1.198291999999999913e+00 -2.349040000000000017e+00 -2.423032000000000075e+00 8.208539999999999726e-01 -3.424019999999999841e-01 -4.228259999999999796e-01 5.743639999999999857e-01 1.652760000000000062e-01 -1.404700000000000060e+00 -1.742609999999999992e+00 -2.260769999999999946e+00 7.640199999999999769e-02 6.296829999999999927e-01 1.960650999999999922e+00 -1.356570999999999971e+00 -1.938249000000000111e+00 5.747389999999999999e-01 4.298910000000000231e-01 -1.613850999999999924e+00 2.545205000000000162e+00 -2.634909999999999752e-01 3.028879999999999906e-01 -4.505020000000000135e-01 -7.974569999999999714e-01 -2.172442000000000206e+00 -7.245500000000000551e-02 1.467627999999999933e+00 -1.470930000000000015e-01 -9.463719999999999910e-01 -9.601129999999999942e-01 -6.466749999999999998e-01
-1.368640000000000134e-01 -1.533474999999999921e+00 -7.124160000000000492e-01 -6.324750000000000094e-01 -1.194895000000000040e+00 9.258549999999999836e-01 -1.471184999999999965e+00 1.476628999999999969e+00 2.924590000000000245e-01 1.287882999999999889e+00 -4.056239999999999846e-01 3.725319999999999743e-01 6.840380000000000349e-01 -1.089345999999999925e+00 1.498998000000000053e+00 2.472110999999999947e+00 1.334214999999999929e+00 2.602339000000000180e+00 -8.784000000000000141e-03 -3.492509999999999781e-01 1.030466000000000104e+00 -2.731600000000000000e-02 -8.699139999999999651e-01 -9.818000000000000338e-02 -5.704460000000000086e-01 1.251984999999999904e+00 5.899539999999999784e-01 -1.088484000000000007e+00 -1.486733000000000082e+00 1.946873000000000076e+00 -4.239519999999999955e-01 1.782264999999999988e+00 -1.022947000000000051e+00 -1.509949999999999903e+00 5.112229999999999830e-01 -1.850751999999999953e+00 1.118397000000000086e+00 2.048969000000000040e+00 7.404979999999999896e-01 4.229470000000000174e-01 7.855259999999999465e-01 1.200880000000000003e-01 1.846449000000000007e+00 5.650230000000000530e-01 -1.945872000000000046e+00 -7.023359999999999603e-01 1.554818000000000033e+00 -1.966898999999999953e+00 -1.285012000000000043e+00 5.013959999999999528e-01 -3.379659999999999886e-01 -1.818929999999999991e-01 -8.316800000000000581e-02 8.104879999999999862e-01 -5.908470000000000111e-01 1.556054000000000048e+00 6.873899999999999455e-01 -9.947890000000000343e-01 -3.583999999999999964e-01 -1.932566999999999924e+00 -1.436919999999999864e-01 -6.756250000000000311e-01 4.237509999999999888e-01 6.367810000000000414e-01 -1.410160000000000080e+00 2.696610000000000174e+00 9.156649999999999512e-01 1.740985999999999922e+00 -1.166774999999999896e+00 -4.020119999999999805e-01 -1.609409000000000090e+00 1.548189999999999955e+00 9.210970000000000546e-01 -3.950469999999999815e-01 5.627940000000000165e-01 -9.248499999999999499e-01 4.484859999999999958e-01 1.148995999999999906e+00 -3.876640000000000086e-01 -1.433165000000000022e+00 -1.245886000000000049e+00 2.043149999999999966e-01 4.811670000000000114e-01 9.049300000000000399e-02 2.442000000000000004e-01 -1.998223000000000082e+00 7.828720000000000123e-01 2.176909999999999901e+00 2.191511999999999905e+00 5.860640000000000294e-01 1.877099999999999880e-01 -7.869119999999999449e-01 1.948819999999999997e-01 1.473879999999999912e-01 -2.356838000000000211e+00 -4.648720000000000074e-01 7.370459999999999789e-01 4.801210000000000200e-01 1.222812000000000010e+00 -5.281949999999999701e-01 -1.782060000000000033e-01 -5.648130000000000095e-01 -5.833490000000000064e-01 7.930660000000000487e-01 -5.201449999999999685e-01 -7.908290000000000042e-01 2.004560000000000120e+00 7.238510000000000222e-01 -1.542375999999999969e+00 1.356749999999999901e+00 1.182740000000000041e-01 1.906376999999999988e+00 -2.053434000000000204e+00 -9.516000000000000153e-03 -1.279249000000000080e+00 -2.592070000000000207e-01 -9.672479999999999967e-01 -8.841269999999999962e-01 2.518275000000000041e+00 9.033020000000000493e-01 5.315879999999999495e-01 -1.474525000000000086e+00 -7.005550000000000388e-01 7.107839999999999714e-01 1.323638000000000092e+00 -6.680400000000000227e-02 -4.561230000000000007e-01 -1.161608999999999892e+00 -6.227209999999999690e-01 5.425870000000000415e-01 -9.618710000000000315e-01 1.237684000000000006e+00 -1.322950000000000070e+00 1.282159999999999966e-01 -1.783935999999999966e+00 -1.990583999999999909e+00 -1.153332999999999942e+00 2.275689999999999935e-01 -4.391109999999999736e-01 -2.261170000000000124e-01 -4.614059999999999828e-01 -1.245392000000000055e+00 -3.690559999999999952e-01 -2.788209999999999855e-01 1.185400000000000009e+00 -1.313625000000000043e+00 -4.107390000000000208e-01 1.288291000000000075e+00 -1.565968999999999944e+00 2.247709999999999986e-01 1.907157999999999909e+00 1.009260000000000018e-01 1.434101000000000070e+00 1.691050000000000053e-01 -1.507344000000000017e+00 -5.427849999999999620e-01 -1.446310000000000096e-01 -1.364279999999999937e-01 -5.194670000000000121e-01 -4.306499999999999773e-01 1.275699999999999890e-01 5.758259999999999490e-01 3.887209999999999832e-01 2.545299999999999993e-02 1.098896000000000095e+00 1.342999999999999923e-02 6.769960000000000422e-01 6.931979999999999809e-01 8.171509999999999607e-01 4.242870000000000252e-01 3.824839999999999907e-01 1.069417999999999980e+00 5.893150000000000333e-01 -2.877370000000000205e-01 -2.949760000000000160e-01 -9.074400000000000521e-02 -1.048316999999999943e+00 -2.032620000000000093e+00 -1.281384000000000079e+00 1.356120000000000103e-01 -9.216220000000000523e-01 8.474899999999999656e-01 -1.905926000000000009e+00 -1.054707999999999979e+00 -2.369410000000000127e-01 -1.815722000000000058e+00 5.503179999999999739e-01 8.353720000000000034e-01 7.828500000000000458e-01 1.027738999999999958e+00 1.836467999999999989e+00 1.138060000000000044e-01 7.070990000000000331e-01 9.920309999999999961e-01 1.276110000000000022e-01 7.011499999999999677e-02 4.569500000000000228e-01 -2.745580000000000243e-01 -1.276575000000000015e+00 2.838140000000000107e+00 -1.273851000000000067e+00 7.694530000000000536e-01 -4.559699999999999864e-01 -1.607159999999999977e-01 -2.459840000000000082e-01 2.074956999999999940e+00 -1.301500000000000053e-02 -7.632579999999999920e-01 -9.830800000000000649e-02 -9.988489999999999869e-01 3.737800000000000150e-02 5.263400000000000023e-02 -2.982502999999999904e+00 -6.514020000000000366e-01 8.882139999999999480e-01 1.802523000000000097e+00 -3.576099999999999834e-01 -4.565259999999999874e-01 -5.540119999999999489e-01 -6.801890000000000436e-01 -1.074500000000000011e+00 3.512750000000000039e-01 -7.110560000000000214e-01 -9.533740000000000547e-01 -1.105088000000000070e+00 -4.101690000000000058e-01 -3.938099999999999934e-01 -1.205332000000000070e+00 2.304249999999999909e-01 -4.373850000000000238e-01 4.608689999999999731e-01 3.678109999999999991e-01 -4.951010000000000133e-01 -8.920249999999999568e-01 1.757779999999999898e-01 -2.452083000000000013e+00 -6.416800000000000281e-02 6.319050000000000500e-01 6.520719999999999850e-01 -7.136390000000000233e-01 1.293239000000000027e+00 -9.841700000000000448e-02 3.785450000000000204e-01 -1.830999999999999945e-03 -1.494280999999999970e+00 1.290800000000000003e-01 -8.227919999999999678e-01 -1.301120000000000054e+00 -5.028500000000000331e-02 1.307820000000000094e-01 -4.632580000000000031e-01 4.695320000000000049e-01 4.750999999999999668e-02 -1.107167000000000012e+00 1.678709999999999924e-01 -1.201480000000000048e-01 -1.324799999999999936e-02 5.152790000000000425e-01 1.368646999999999947e+00 -4.489560000000000217e-01 -9.591809999999999503e-01 3.735680000000000112e-01 3.657400000000000234e-02 -2.728380000000000249e-01 1.011087999999999987e+00 1.294035999999999964e+00 1.148115999999999914e+00 -6.065180000000000016e-01 5.301879999999999926e-01 5.311000000000000165e-01 2.158400000000000041e-01 5.629809999999999537e-01 -7.214260000000000117e-01 1.208380999999999927e+00 1.011449000000000042e+00 6.468519999999999825e-01 -1.148547999999999902e+00 -8.881600000000000605e-02 1.067117000000000093e+00 4.700989999999999891e-01 1.493160000000000043e-01 1.698780000000000012e-01