-9.210022613300000103e+02
-9.119566250399999490e+02
-8.978021460999999590e+02
-8.881066577999999936e+02
-9.151324375200000532e+02
-9.119713402600000336e+02
-9.161533536399999775e+02
-8.936795235900000307e+02
-8.994604491600000529e+02
-8.976658510500000148e+02
-9.091716234100000520e+02
-9.028873534399999699e+02
-8.913131186699999944e+02
-9.071881500499999902e+02
-9.057322073100000352e+02
-9.026054527899999584e+02
-9.051364333300000453e+02
-9.052672983100000010e+02
-9.178436387199999444e+02
-9.118660244699999566e+02
-9.142066784500000267e+02
-9.100392669999999953e+02
-9.178410911600000190e+02
-8.880412286700000095e+02
-9.015303485599999931e+02
-9.105490666199999623e+02
-9.143328272700000525e+02
-9.027734237099999746e+02
-8.897256410999999616e+02
-8.890767379699999537e+02
-9.091361165700000129e+02
-9.002903229999999439e+02
-8.966188895799999727e+02
-9.217980327699999634e+02
-9.108300619899999901e+02
-8.989467177300000458e+02
-8.972925863200000549e+02
-8.880444128200000478e+02
-9.155486850800000411e+02
-8.908576287299999876e+02
-9.143458234700000276e+02
-9.174893613299999515e+02
-9.071365314500000068e+02
-9.163849195899999813e+02
-8.879878715400000146e+02
-9.177417573000000175e+02
-9.084908340499999895e+02
-8.892307963700000073e+02
-9.257040944899999886e+02
-9.045642770099999552e+02
-8.947009580500000538e+02
-8.994699590699999590e+02
-8.988927338099999815e+02
-8.883804095499999676e+02
-9.182649977500000205e+02
-9.142541482799999812e+02
-9.009024710600000390e+02
-9.184137694800000418e+02
-9.050183874000000515e+02
-9.214401830900000050e+02
-8.923680171199999904e+02
-9.034659881899999618e+02
-9.126884387999999717e+02
-9.103941617499999666e+02
-9.091090666500000452e+02
-9.108259767099999635e+02
-9.219375475699999924e+02
-8.913254392100000132e+02
-9.158739059800000177e+02
-9.086702020499999435e+02
-8.944810948099999450e+02
-9.182145545700000184e+02
-9.056455029600000444e+02
-9.183767810599999848e+02
-8.962723259499999813e+02
-9.166639815099999851e+02
-9.029172101699999757e+02
-8.945474734099999523e+02
-8.974360234399999854e+02
-9.250535443899999564e+02
-9.150877946499999780e+02
-9.027673847800000431e+02
-9.139800047899999527e+02
-9.093646526500000391e+02
-8.991451920800000153e+02
-8.910329443900000115e+02
-8.919286267600000429e+02
-9.164726771399999734e+02
-9.065573251800000207e+02
-9.142629400299999816e+02
-9.059039704799999981e+02
-9.171440232899999501e+02
-9.112704337300000361e+02
-9.042424481699999887e+02
-9.113209424799999852e+02
-9.222378195899999582e+02
-8.958061765100000002e+02
-8.980564386700000341e+02
-8.958814347100000077e+02
-8.952787113299999646e+02
