1.026029522299999996e+01 0.000000000000000000e+00 0.000000000000000000e+00 3.602781399999999828e-02 1.071343234299999914e+01 0.000000000000000000e+00 -4.525832700000000097e-02 -4.923029599999999978e-02 1.027138408100000078e+01
1.042756364499999933e+01 0.000000000000000000e+00 0.000000000000000000e+00 3.661515700000000234e-02 1.088808803200000064e+01 0.000000000000000000e+00 -4.599615099999999901e-02 -5.003287199999999907e-02 1.043883328000000077e+01
1.020251348400000069e+01 0.000000000000000000e+00 0.000000000000000000e+00 3.582492000000000315e-02 1.065309872399999946e+01 0.000000000000000000e+00 -4.500345099999999987e-02 -4.895305099999999743e-02 1.021353989500000026e+01
1.017650515000000055e+01 0.000000000000000000e+00 0.000000000000000000e+00 3.573359499999999994e-02 1.062594175399999941e+01 0.000000000000000000e+00 -4.488872700000000326e-02 -4.882825899999999886e-02 1.018750345199999963e+01
1.029778436299999989e+01 0.000000000000000000e+00 0.000000000000000000e+00 3.615945200000000165e-02 1.075257715799999936e+01 0.000000000000000000e+00 -4.542369200000000162e-02 -4.941017400000000115e-02 1.030891373699999924e+01
1.009453743799999970e+01 0.000000000000000000e+00 0.000000000000000000e+00 3.544577499999999881e-02 1.054035400799999955e+01 0.000000000000000000e+00 -4.452716699999999944e-02 -4.843496700000000238e-02 1.010544715300000007e+01
1.004217903700000036e+01 0.000000000000000000e+00 0.000000000000000000e+00 3.526192400000000005e-02 1.048568324400000051e+01 0.000000000000000000e+00 -4.429621300000000095e-02 -4.818374400000000057e-02 1.005303216599999949e+01
1.015709816100000040e+01 0.000000000000000000e+00 0.000000000000000000e+00 3.566544900000000184e-02 1.060567767100000047e+01 0.000000000000000000e+00 -4.480312300000000025e-02 -4.873514200000000213e-02 1.016807548799999950e+01
1.022561621900000084e+01 0.000000000000000000e+00 0.000000000000000000e+00 3.590604199999999913e-02 1.067722177099999925e+01 0.000000000000000000e+00 -4.510535699999999870e-02 -4.906390100000000004e-02 1.023666759800000037e+01
1.024627634199999981e+01 0.000000000000000000e+00 0.000000000000000000e+00 3.597858799999999885e-02 1.069879433100000021e+01 0.000000000000000000e+00 -4.519648899999999941e-02 -4.916303100000000287e-02 1.025735004999999944e+01
1.006542501300000048e+01 0.000000000000000000e+00 0.000000000000000000e+00 3.534355000000000135e-02 1.050995585699999957e+01 0.000000000000000000e+00 -4.439875100000000019e-02 -4.829528200000000188e-02 1.007630326399999987e+01
1.030577746099999992e+01 0.000000000000000000e+00 0.000000000000000000e+00 3.618751900000000132e-02 1.076092326500000063e+01 0.000000000000000000e+00 -4.545894999999999797e-02 -4.944852500000000012e-02 1.031691547500000006e+01
1.020614620799999983e+01 0.000000000000000000e+00 0.000000000000000000e+00 3.583767599999999887e-02 1.065689188400000020e+01 0.000000000000000000e+00 -4.501947500000000324e-02 -4.897048100000000320e-02 1.021717654499999917e+01
1.035790854699999919e+01 0.000000000000000000e+00 0.000000000000000000e+00 3.637057099999999737e-02 1.081535667500000031e+01 0.000000000000000000e+00 -4.568890099999999704e-02 -4.969865799999999972e-02 1.036910290099999976e+01
1.025865685599999999e+01 0.000000000000000000e+00 0.000000000000000000e+00 3.602206100000000105e-02 1.071172161900000042e+01 0.000000000000000000e+00 -4.525110000000000243e-02 -4.922243400000000241e-02 1.026974394400000001e+01
1.029932989899999995e+01 0.000000000000000000e+00 0.000000000000000000e+00 3.616487899999999700e-02 1.075419095200000008e+01 0.000000000000000000e+00 -4.543050900000000086e-02 -4.941758899999999788e-02 1.031046094400000079e+01
1.032210655399999943e+01 0.000000000000000000e+00 0.000000000000000000e+00 3.624485699999999838e-02 1.077797351899999967e+01 0.000000000000000000e+00 -4.553097799999999973e-02 -4.952687499999999798e-02 1.033326221599999961e+01
1.038890231899999961e+01 0.000000000000000000e+00 0.000000000000000000e+00 3.647940200000000105e-02 1.084771926099999995e+01 0.000000000000000000e+00 -4.582561500000000010e-02 -4.984737000000000195e-02 1.040013017000000062e+01
1.014359574700000088e+01 0.000000000000000000e+00 0.000000000000000000e+00 3.561803699999999823e-02 1.059157893499999936e+01 0.000000000000000000e+00 -4.474356399999999956e-02 -4.867035599999999795e-02 1.015455848200000055e+01
1.034323254999999975e+01 0.000000000000000000e+00 0.000000000000000000e+00 3.631903799999999793e-02 1.080003252600000074e+01 0.000000000000000000e+00 -4.562416500000000125e-02 -4.962823999999999708e-02 1.035441104300000070e+01
1.029299038499999952e+01 0.000000000000000000e+00 0.000000000000000000e+00 3.614261900000000083e-02 1.074757145899999955e+01 0.000000000000000000e+00 -4.540254600000000196e-02 -4.938717100000000054e-02 1.030411457900000016e+01
1.006519946899999951e+01 0.000000000000000000e+00 0.000000000000000000e+00 3.534275800000000189e-02 1.050972035200000043e+01 0.000000000000000000e+00 -4.439775599999999656e-02 -4.829419900000000293e-02 1.007607747600000003e+01
1.036761576399999996e+01 0.000000000000000000e+00 0.000000000000000000e+00 3.640465699999999999e-02 1.082549260400000080e+01 0.000000000000000000e+00 -4.573171899999999707e-02 -4.974523399999999929e-02 1.037882060899999992e+01
1.030254605700000070e+01 0.000000000000000000e+00 0.000000000000000000e+00 3.617617199999999950e-02 1.075754914900000081e+01 0.000000000000000000e+00 -4.544469599999999970e-02 -4.943302100000000060e-02 1.031368057799999960e+01
1.011700358599999916e+01 0.000000000000000000e+00 0.000000000000000000e+00 3.552466199999999852e-02 1.056381235399999952e+01 0.000000000000000000e+00 -4.462626499999999830e-02 -4.854276300000000266e-02 1.012793758099999941e+01
1.005499623300000067e+01 0.000000000000000000e+00 0.000000000000000000e+00 3.530693099999999973e-02 1.049906649999999964e+01 0.000000000000000000e+00 -4.435275000000000328e-02 -4.824524300000000016e-02 1.006586321400000017e+01
1.018778044499999957e+01 0.000000000000000000e+00 0.000000000000000000e+00 3.577318699999999796e-02 1.063771501199999925e+01 0.000000000000000000e+00 -4.493846299999999794e-02 -4.888235999999999970e-02 1.019879093199999964e+01
1.033114686599999921e+01 0.000000000000000000e+00 0.000000000000000000e+00 3.627660099999999860e-02 1.078741308799999921e+01 0.000000000000000000e+00 -4.557085500000000039e-02 -4.957025100000000267e-02 1.034231229699999943e+01
1.013819760500000022e+01 0.000000000000000000e+00 0.000000000000000000e+00 3.559908199999999717e-02 1.058594238899999951e+01 0.000000000000000000e+00 -4.471975200000000150e-02 -4.864445399999999670e-02 1.014915450600000035e+01
1.026937846300000068e+01 0.000000000000000000e+00 0.000000000000000000e+00 3.605970800000000281e-02 1.072291673700000025e+01 0.000000000000000000e+00 -4.529839299999999930e-02 -4.927387800000000012e-02 1.028047713800000018e+01
1.005899402400000042e+01 0.000000000000000000e+00 0.000000000000000000e+00 3.532096800000000120e-02 1.050324084999999918e+01 0.000000000000000000e+00 -4.437038399999999883e-02 -4.826442499999999969e-02 1.006986532600000039e+01
1.015278882900000035e+01 0.000000000000000000e+00 0.000000000000000000e+00 3.565031800000000028e-02 1.060117802199999915e+01 0.000000000000000000e+00 -4.478411399999999987e-02 -4.871446499999999846e-02 1.016376149899999959e+01
1.009541672399999968e+01 0.000000000000000000e+00 0.000000000000000000e+00 3.544886199999999765e-02 1.054127212699999916e+01 0.000000000000000000e+00 -4.453104499999999827e-02 -4.843918600000000213e-02 1.010632738900000049e+01
1.026382973299999968e+01 0.000000000000000000e+00 0.000000000000000000e+00 3.604022500000000212e-02 1.071712295100000034e+01 0.000000000000000000e+00 -4.527391800000000327e-02 -4.924725499999999673e-02 1.027492241100000037e+01
1.024587136699999945e+01 0.000000000000000000e+00 0.000000000000000000e+00 3.597716599999999793e-02 1.069837146999999966e+01 0.000000000000000000e+00 -4.519470300000000273e-02 -4.916108799999999862e-02 1.025694463700000014e+01
1.022701451100000014e+01 0.000000000000000000e+00 0.000000000000000000e+00 3.591095200000000293e-02 1.067868181699999930e+01 0.000000000000000000e+00 -4.511152499999999954e-02 -4.907061000000000062e-02 1.023806740100000034e+01
1.028723383500000033e+01 0.000000000000000000e+00 0.000000000000000000e+00 3.612240500000000326e-02 1.074156067600000064e+01 0.000000000000000000e+00 -4.537715300000000340e-02 -4.935955100000000151e-02 1.029835180799999961e+01
1.028545274200000037e+01 0.000000000000000000e+00 0.000000000000000000e+00 3.611615099999999912e-02 1.073970092200000082e+01 0.000000000000000000e+00 -4.536929700000000287e-02 -4.935100500000000334e-02 1.029656878900000017e+01
1.045460670399999970e+01 0.000000000000000000e+00 0.000000000000000000e+00 3.671011500000000150e-02 1.091632542400000006e+01 0.000000000000000000e+00 -4.611543800000000165e-02 -5.016262800000000077e-02 1.046590556499999991e+01
1.030826073000000065e+01 0.000000000000000000e+00 0.000000000000000000e+00 3.619623899999999811e-02 1.076351620500000017e+01 0.000000000000000000e+00 -4.546990299999999902e-02 -4.946044100000000082e-02 1.031940142700000074e+01
1.012399871400000073e+01 0.000000000000000000e+00 0.000000000000000000e+00 3.554922499999999680e-02 1.057111641600000063e+01 0.000000000000000000e+00 -4.465712100000000101e-02 -4.857632600000000300e-02 1.013494026899999945e+01
1.019423979899999999e+01 0.000000000000000000e+00 0.000000000000000000e+00 3.579586800000000152e-02 1.064445963800000072e+01 0.000000000000000000e+00 -4.496695500000000290e-02 -4.891335299999999969e-02 1.020525726700000035e+01
1.036649941099999950e+01 0.000000000000000000e+00 0.000000000000000000e+00 3.640073700000000245e-02 1.082432694799999950e+01 0.000000000000000000e+00 -4.572679500000000063e-02 -4.973987800000000126e-02 1.037770304999999915e+01
1.005565136399999915e+01 0.000000000000000000e+00 0.000000000000000000e+00 3.530923100000000342e-02 1.049975056399999929e+01 0.000000000000000000e+00 -4.435563900000000226e-02 -4.824838599999999728e-02 1.006651905300000038e+01
1.029437076399999995e+01 0.000000000000000000e+00 0.000000000000000000e+00 3.614746600000000309e-02 1.074901280099999923e+01 0.000000000000000000e+00 -4.540863500000000275e-02 -4.939379499999999729e-02 1.030549644999999970e+01
1.045738995800000026e+01 0.000000000000000000e+00 0.000000000000000000e+00 3.671988899999999861e-02 1.091923159699999957e+01 0.000000000000000000e+00 -4.612771499999999969e-02 -5.017598300000000039e-02 1.046869182700000067e+01
1.006147728800000074e+01 0.000000000000000000e+00 0.000000000000000000e+00 3.532968799999999798e-02 1.050583378500000009e+01 0.000000000000000000e+00 -4.438133799999999934e-02 -4.827634000000000092e-02 1.007235127300000066e+01
1.040739231100000062e+01 0.000000000000000000e+00 0.000000000000000000e+00 3.654432800000000092e-02 1.086702584800000082e+01 0.000000000000000000e+00 -4.590717400000000198e-02 -4.993608699999999706e-02 1.041864014499999946e+01
1.013888653799999950e+01 0.000000000000000000e+00 0.000000000000000000e+00 3.560150100000000067e-02 1.058666174799999915e+01 0.000000000000000000e+00 -4.472279099999999785e-02 -4.864775999999999823e-02 1.014984418300000080e+01
1.014513674800000054e+01 0.000000000000000000e+00 0.000000000000000000e+00 3.562344800000000200e-02 1.059318799400000088e+01 0.000000000000000000e+00 -4.475036100000000239e-02 -4.867774899999999932e-02 1.015610114899999950e+01
1.030669583100000075e+01 0.000000000000000000e+00 0.000000000000000000e+00 3.619074399999999692e-02 1.076188219500000010e+01 0.000000000000000000e+00 -4.546300100000000288e-02 -4.945293199999999806e-02 1.031783483699999948e+01
1.030642264199999936e+01 0.000000000000000000e+00 0.000000000000000000e+00 3.618978500000000209e-02 1.076159694000000044e+01 0.000000000000000000e+00 -4.546179599999999876e-02 -4.945162100000000116e-02 1.031756135300000032e+01
1.023264557499999938e+01 0.000000000000000000e+00 0.000000000000000000e+00 3.593072499999999669e-02 1.068456157199999979e+01 0.000000000000000000e+00 -4.513636399999999826e-02 -4.909762899999999680e-02 1.024370455000000035e+01
1.007955118099999936e+01 0.000000000000000000e+00 0.000000000000000000e+00 3.539315199999999717e-02 1.052470589600000039e+01 0.000000000000000000e+00 -4.446106200000000258e-02 -4.836306099999999886e-02 1.009044470000000082e+01
1.023231283600000019e+01 0.000000000000000000e+00 0.000000000000000000e+00 3.592955700000000085e-02 1.068421413899999983e+01 0.000000000000000000e+00 -4.513489600000000074e-02 -4.909603199999999779e-02 1.024337145299999996e+01
1.011455680899999976e+01 0.000000000000000000e+00 0.000000000000000000e+00 3.551606999999999681e-02 1.056125751699999959e+01 0.000000000000000000e+00 -4.461547200000000324e-02 -4.853102299999999952e-02 1.012548815999999974e+01
1.030972122900000087e+01 0.000000000000000000e+00 0.000000000000000000e+00 3.620136699999999819e-02 1.076504120599999936e+01 0.000000000000000000e+00 -4.547634600000000082e-02 -4.946744799999999720e-02 1.032086350500000016e+01
1.009829923500000071e+01 0.000000000000000000e+00 0.000000000000000000e+00 3.545898399999999895e-02 1.054428194199999957e+01 0.000000000000000000e+00 -4.454376000000000169e-02 -4.845301700000000100e-02 1.010921301499999991e+01
1.009860813699999937e+01 0.000000000000000000e+00 0.000000000000000000e+00 3.546006899999999684e-02 1.054460448600000078e+01 0.000000000000000000e+00 -4.454512199999999950e-02 -4.845449899999999810e-02 1.010952225099999957e+01
1.027008776599999962e+01 0.000000000000000000e+00 0.000000000000000000e+00 3.606219900000000311e-02 1.072365736499999933e+01 0.000000000000000000e+00 -4.530152199999999685e-02 -4.927728099999999917e-02 1.028118720800000041e+01
1.014029947100000051e+01 0.000000000000000000e+00 0.000000000000000000e+00 3.560646299999999792e-02 1.058813708199999937e+01 0.000000000000000000e+00 -4.472902399999999917e-02 -4.865454000000000306e-02 1.015125864300000025e+01
1.016254578500000072e+01 0.000000000000000000e+00 0.000000000000000000e+00 3.568457800000000152e-02 1.061136588599999975e+01 0.000000000000000000e+00 -4.482715200000000205e-02 -4.876127999999999713e-02 1.017352900000000027e+01
1.033708141700000027e+01 0.000000000000000000e+00 0.000000000000000000e+00 3.629743900000000079e-02 1.079360973300000026e+01 0.000000000000000000e+00 -4.559703200000000262e-02 -4.959872600000000270e-02 1.034825326200000006e+01
1.042272007599999917e+01 0.000000000000000000e+00 0.000000000000000000e+00 3.659814900000000343e-02 1.088303055000000086e+01 0.000000000000000000e+00 -4.597478499999999718e-02 -5.000963199999999831e-02 1.043398447500000081e+01
1.039345108700000075e+01 0.000000000000000000e+00 0.000000000000000000e+00 3.649537499999999657e-02 1.085246892199999991e+01 0.000000000000000000e+00 -4.584567900000000029e-02 -4.986919499999999811e-02 1.040468385500000004e+01
1.028087239699999955e+01 0.000000000000000000e+00 0.000000000000000000e+00 3.610006799999999905e-02 1.073491828999999953e+01 0.000000000000000000e+00 -4.534909300000000004e-02 -4.932902799999999699e-02 1.029198349400000012e+01
1.025720792699999961e+01 0.000000000000000000e+00 0.000000000000000000e+00 3.601697300000000074e-02 1.071020869900000072e+01 0.000000000000000000e+00 -4.524470900000000101e-02 -4.921548199999999790e-02 1.026829344799999966e+01
1.039741131699999954e+01 0.000000000000000000e+00 0.000000000000000000e+00 3.650928099999999760e-02 1.085660405099999970e+01 0.000000000000000000e+00 -4.586314799999999942e-02 -4.988819700000000218e-02 1.040864836399999938e+01
1.035799661000000071e+01 0.000000000000000000e+00 0.000000000000000000e+00 3.637088100000000074e-02 1.081544862800000040e+01 0.000000000000000000e+00 -4.568928900000000098e-02 -4.969907999999999965e-02 1.036919106000000035e+01
1.036352658700000084e+01 0.000000000000000000e+00 0.000000000000000000e+00 3.639029800000000148e-02 1.082122283100000004e+01 0.000000000000000000e+00 -4.571368199999999854e-02 -4.972561400000000131e-02 1.037472701299999933e+01
1.023636837199999938e+01 0.000000000000000000e+00 0.000000000000000000e+00 3.594379699999999955e-02 1.068844878400000020e+01 0.000000000000000000e+00 -4.515278500000000084e-02 -4.911549099999999723e-02 1.024743137199999943e+01
1.012884732500000062e+01 0.000000000000000000e+00 0.000000000000000000e+00 3.556625000000000064e-02 1.057617916200000074e+01 0.000000000000000000e+00 -4.467850799999999872e-02 -4.859959099999999754e-02 1.013979412099999955e+01
1.031555550799999921e+01 0.000000000000000000e+00 0.000000000000000000e+00 3.622185399999999778e-02 1.077113315100000079e+01 0.000000000000000000e+00 -4.550208099999999978e-02 -4.949544200000000060e-02 1.032670408899999970e+01
1.011205557199999916e+01 0.000000000000000000e+00 0.000000000000000000e+00 3.550728799999999796e-02 1.055864581500000021e+01 0.000000000000000000e+00 -4.460443900000000267e-02 -4.851902100000000245e-02 1.012298421899999923e+01
1.028839112400000033e+01 0.000000000000000000e+00 0.000000000000000000e+00 3.612646900000000133e-02 1.074276907600000008e+01 0.000000000000000000e+00 -4.538225800000000171e-02 -4.936510300000000045e-02 1.029951034700000001e+01
1.015476904600000019e+01 0.000000000000000000e+00 0.000000000000000000e+00 3.565727099999999733e-02 1.060324569299999986e+01 0.000000000000000000e+00 -4.479284900000000263e-02 -4.872396699999999997e-02 1.016574385600000063e+01
1.019009677700000083e+01 0.000000000000000000e+00 0.000000000000000000e+00 3.578131999999999840e-02 1.064013364400000050e+01 0.000000000000000000e+00 -4.494867999999999780e-02 -4.889347399999999927e-02 1.020110976800000024e+01
1.038621386700000038e+01 0.000000000000000000e+00 0.000000000000000000e+00 3.646996200000000160e-02 1.084491207599999996e+01 0.000000000000000000e+00 -4.581375599999999715e-02 -4.983446999999999877e-02 1.039743881200000075e+01
1.025717508099999975e+01 0.000000000000000000e+00 0.000000000000000000e+00 3.601685799999999882e-02 1.071017440199999982e+01 0.000000000000000000e+00 -4.524456400000000100e-02 -4.921532499999999727e-02 1.026826056700000045e+01
1.028325629300000088e+01 0.000000000000000000e+00 0.000000000000000000e+00 3.610843899999999912e-02 1.073740747000000084e+01 0.000000000000000000e+00 -4.535960800000000265e-02 -4.934046599999999949e-02 1.029436996699999973e+01
1.043138136900000035e+01 0.000000000000000000e+00 0.000000000000000000e+00 3.662856200000000340e-02 1.089207436200000068e+01 0.000000000000000000e+00 -4.601299100000000308e-02 -5.005119000000000234e-02 1.044265513000000034e+01
1.015325086200000015e+01 0.000000000000000000e+00 0.000000000000000000e+00 3.565194000000000002e-02 1.060166045999999973e+01 0.000000000000000000e+00 -4.478615200000000268e-02 -4.871668199999999727e-02 1.016422403099999983e+01
1.029652242100000059e+01 0.000000000000000000e+00 0.000000000000000000e+00 3.615502100000000246e-02 1.075125948400000020e+01 0.000000000000000000e+00 -4.541812600000000311e-02 -4.940411900000000328e-02 1.030765043200000086e+01
1.047089598800000054e+01 0.000000000000000000e+00 0.000000000000000000e+00 3.676731300000000285e-02 1.093333411000000055e+01 0.000000000000000000e+00 -4.618728999999999890e-02 -5.024078700000000203e-02 1.048221245400000079e+01
1.040151335500000052e+01 0.000000000000000000e+00 0.000000000000000000e+00 3.652368400000000070e-02 1.086088725299999957e+01 0.000000000000000000e+00 -4.588124200000000263e-02 -4.990787900000000221e-02 1.041275483499999943e+01
1.018995346300000016e+01 0.000000000000000000e+00 0.000000000000000000e+00 3.578081699999999948e-02 1.063998399900000003e+01 0.000000000000000000e+00 -4.494804799999999739e-02 -4.889278600000000058e-02 1.020096629899999918e+01
1.031989769900000020e+01 0.000000000000000000e+00 0.000000000000000000e+00 3.623710100000000073e-02 1.077566711100000063e+01 0.000000000000000000e+00 -4.552123400000000070e-02 -4.951627599999999796e-02 1.033105097299999997e+01
1.018419746200000020e+01 0.000000000000000000e+00 0.000000000000000000e+00 3.576060500000000086e-02 1.063397379000000065e+01 0.000000000000000000e+00 -4.492265799999999726e-02 -4.886516800000000049e-02 1.019520407799999973e+01
1.030626549399999980e+01 0.000000000000000000e+00 0.000000000000000000e+00 3.618923300000000121e-02 1.076143285200000044e+01 0.000000000000000000e+00 -4.546110200000000323e-02 -4.945086700000000252e-02 1.031740403499999914e+01
1.028038057500000058e+01 0.000000000000000000e+00 0.000000000000000000e+00 3.609834099999999907e-02 1.073440474799999933e+01 0.000000000000000000e+00 -4.534692399999999679e-02 -4.932666799999999713e-02 1.029149114099999984e+01
1.004942528700000004e+01 0.000000000000000000e+00 0.000000000000000000e+00 3.528736899999999899e-02 1.049324951800000072e+01 0.000000000000000000e+00 -4.432817599999999691e-02 -4.821851299999999757e-02 1.006028624700000051e+01
1.033781305199999956e+01 0.000000000000000000e+00 0.000000000000000000e+00 3.630000800000000166e-02 1.079437368099999972e+01 0.000000000000000000e+00 -4.560025899999999716e-02 -4.960223700000000041e-02 1.034898568800000085e+01
1.017737450199999927e+01 0.000000000000000000e+00 0.000000000000000000e+00 3.573664700000000333e-02 1.062684950000000050e+01 0.000000000000000000e+00 -4.489256199999999697e-02 -4.883243100000000253e-02 1.018837374299999965e+01
1.048039101800000061e+01 0.000000000000000000e+00 0.000000000000000000e+00 3.680065400000000209e-02 1.094324847999999939e+01 0.000000000000000000e+00 -4.622917299999999841e-02 -5.028634500000000312e-02 1.049171774600000084e+01
1.024098086200000068e+01 0.000000000000000000e+00 0.000000000000000000e+00 3.595999400000000207e-02 1.069326498000000036e+01 0.000000000000000000e+00 -4.517313099999999831e-02 -4.913762299999999833e-02 1.025204884599999922e+01
1.019461988699999999e+01 0.000000000000000000e+00 0.000000000000000000e+00 3.579720200000000019e-02 1.064485651200000049e+01 0.000000000000000000e+00 -4.496863200000000144e-02 -4.891517599999999771e-02 1.020563776600000061e+01
1.035796798400000007e+01 0.000000000000000000e+00 0.000000000000000000e+00 3.637077999999999839e-02 1.081541873699999989e+01 0.000000000000000000e+00 -4.568916299999999792e-02 -4.969894300000000237e-02 1.036916240200000061e+01
1.040113531499999944e+01 0.000000000000000000e+00 0.000000000000000000e+00 3.652235699999999835e-02 1.086049251700000084e+01 0.000000000000000000e+00 -4.587957499999999883e-02 -4.990606499999999945e-02 1.041237638700000012e+01
1.039646012200000058e+01 0.000000000000000000e+00 0.000000000000000000e+00 3.650594100000000009e-02 1.085561084799999954e+01 0.000000000000000000e+00 -4.585895200000000144e-02 -4.988363299999999667e-02 1.040769614100000062e+01
1.028474499999999914e+01 0.000000000000000000e+00 0.000000000000000000e+00 3.611366600000000260e-02 1.073896192399999983e+01 0.000000000000000000e+00 -4.536617500000000164e-02 -4.934760900000000061e-02 1.029586028299999967e+01
