3.226700000000000124e-01 2.322569999999999801e+00 2.229789999999999939e+00 1.459999999999999926e-03 2.550240000000000062e+00 7.633549999999999613e+00 1.021536000000000044e+01 8.014170000000000016e+00 2.385800000000000143e+00 9.889029999999999987e+00 8.076460000000000861e+00 7.386960000000000193e+00 5.339920000000000222e+00 2.478889999999999816e+00 2.440570000000000128e+00 5.259089999999999598e+00 2.264460000000000139e+00 7.607249999999999623e+00 5.097229999999999706e+00 7.749959999999999738e+00 2.701579999999999870e+00 5.287200000000000344e+00 7.608439999999999870e+00 7.398839999999999861e+00 2.702199999999999935e+00 5.005799999999999805e+00 2.661230000000000206e+00 2.484329999999999927e+00 5.164159999999999862e+00 7.773259999999999614e+00 2.638720000000000176e+00 1.054021000000000008e+01 2.485380000000000145e+00 2.297610000000000152e+00 1.007864000000000004e+01 7.742890000000000050e+00 8.023199999999999221e+00 5.452429999999999666e+00 2.540490000000000137e+00 7.755429999999999602e+00 5.142489999999999561e+00 7.745479999999999698e+00 7.956409999999999982e+00 8.037999999999999312e-02 2.420580000000000176e+00 7.551499999999999879e+00 1.014410999999999952e+01 7.438900000000000290e+00 2.495060000000000056e+00 2.173340000000000050e+00 5.353650000000000020e+00 2.801590000000000025e+00 2.993030000000000079e+00 1.018636000000000053e+01 2.262519999999999865e+00 7.768399999999999750e+00 5.057299999999999685e+00 2.808349999999999902e+00 7.762889999999999624e+00 1.003627000000000002e+01 7.496299999999999741e+00 2.466940000000000133e+00 5.136050000000000004e+00 7.849999999999999645e+00 2.325489999999999835e+00 1.001740999999999993e+01 7.756540000000000212e+00 7.891589999999999883e+00 4.832639999999999603e+00 7.903640000000000221e+00 8.039640000000000342e+00 9.275999999999999523e-02 1.023446000000000033e+01 5.258029999999999760e+00 5.194250000000000256e+00 2.920900000000000163e-01 5.319189999999999863e+00 1.013856000000000002e+01 1.003187999999999924e+01 1.038701000000000008e+01 4.997220000000000439e+00 3.769999999999999914e-03 1.049460999999999977e+01 9.959600000000000009e+00 5.112630000000000230e+00 5.080639999999999823e+00 5.258519999999999861e+00 5.394180000000000419e+00 5.372749999999999915e+00 3.278200000000000003e-01 4.828350000000000364e+00 1.057240999999999964e+01 4.972760000000000069e+00 5.223309999999999675e+00 1.049230999999999980e+01 1.020115999999999978e+01 4.232380000000000031e+00 4.237829999999999764e+00 3.650040000000000173e+00 4.088160000000000238e+00 4.268119999999999692e+00 8.995039999999999480e+00 3.579870000000000108e+00 9.395120000000000360e+00 4.067899999999999849e+00 3.568529999999999980e+00 9.771349999999999980e+00 9.335470000000000823e+00 9.108670000000000044e+00 4.373529999999999696e+00 3.694599999999999884e+00 9.002090000000000813e+00 4.171669999999999767e+00 8.862659999999999982e+00 8.605100000000000193e+00 9.420070000000000832e+00 3.736540000000000195e+00 8.990449999999999164e+00 6.285009999999999764e+00 6.363269999999999982e+00 4.378079999999999750e+00 1.015090000000000048e+00 1.489090000000000025e+00 3.592950000000000088e+00 9.293400000000000549e-01 6.769350000000000200e+00 3.868380000000000152e+00 6.573769999999999669e+00 1.507970000000000033e+00 4.141289999999999694e+00 5.901399999999999757e+00 6.839260000000000339e+00 9.635229999999999961e+00 3.296349999999999891e+00 8.545500000000000318e-01 8.957069999999999865e+00 1.304799999999999960e+00 3.804310000000000080e+00 9.138939999999999841e+00 6.582959999999999923e+00 1.130849999999999911e+00 8.837540000000000617e+00 3.434009999999999785e+00 6.246349999999999625e+00 3.606949999999999878e+00 1.192010000000000014e+00 3.917769999999999975e+00 4.037510000000000154e+00 1.615390000000000104e+00 9.401429999999999509e+00 3.827399999999999913e+00 6.935550000000000104e+00 4.372939999999999827e+00 4.238999999999999879e+00 7.034849999999999604e+00 9.119260000000000588e+00 9.306279999999999220e+00 8.619099999999999540e-01 1.075530000000000097e+00 8.845050000000000523e+00 1.109869999999999912e+00 8.090170000000000528e+00 9.141049999999999898e+00 7.025710000000000122e+00 3.694570000000000132e+00 9.158870000000000289e+00 6.793840000000000323e+00 8.765439999999999898e+00 4.127110000000000056e+00 4.025979999999999670e+00 1.160879999999999912e+00 3.393780000000000019e+00 3.555689999999999795e+00 6.345100000000000406e+00 4.080029999999999824e+00 9.095290000000000319e+00 1.598190000000000000e+00 3.602710000000000079e+00 8.410840000000000316e+00 6.693900000000000183e+00 1.056110000000000104e+00 8.718500000000000139e-01 3.495810000000000084e+00 1.214490000000000069e+00 8.299299999999999455e-01 8.638579999999999259e+00 1.676390000000000047e+00 6.240380000000000038e+00 4.144879999999999676e+00 1.645929999999999893e+00 6.336229999999999585e+00 9.183540000000000703e+00 6.492289999999999672e+00 1.104619999999999935e+00 3.531709999999999905e+00 6.257859999999999978e+00 4.868600000000000150e-01 8.618180000000000618e+00 6.365020000000000344e+00 6.233360000000000234e+00 3.561339999999999950e+00 6.491109999999999935e+00 6.173390000000000377e+00 8.967150000000000176e+00 1.488070000000000004e+00 4.257460000000000022e+00 1.133669999999999956e+00 9.844699999999999562e-01 4.026880000000000237e+00 6.418989999999999974e+00 9.371399999999999730e-01 9.704879999999999285e+00 1.154539999999999900e+00 8.960099999999999731e-01 9.395179999999999865e+00 6.519059999999999633e+00 6.795919999999999739e+00 4.288020000000000387e+00 1.361350000000000060e+00 6.325750000000000206e+00 3.983979999999999855e+00 6.396499999999999631e+00 6.861909999999999954e+00 9.488630000000000564e+00 1.079800000000000093e+00 6.352500000000000036e+00 9.387760000000000105e+00 6.066300000000000026e+00 1.529840000000000089e+00 3.465050000000000185e+00 3.475179999999999936e+00 1.261260000000000048e+00 3.865040000000000031e+00 8.877639999999999532e+00 1.033290000000000042e+00 9.109400000000000830e+00 3.850830000000000197e+00 1.133580000000000032e+00 8.586149999999999949e+00 9.055630000000000734e+00 6.940640000000000143e+00 3.647930000000000117e+00 3.777989999999999959e+00 6.509039999999999715e+00 3.196520000000000028e+00 8.883330000000000837e+00 6.404659999999999798e+00 8.989449999999999719e+00 3.751799999999999802e+00 6.459509999999999863e+00 8.776799999999999713e+00 8.829530000000000101e+00 1.884740000000000082e+00 1.580750000000000099e+00 1.081700000000000106e+00 1.010739999999999972e+00 1.177510000000000057e+00 6.360289999999999999e+00 1.246259999999999923e+00 6.653080000000000105e+00 1.783860000000000001e+00 1.140840000000000076e+00 6.487199999999999633e+00 6.601759999999999629e+00 6.917939999999999756e+00 1.559809999999999919e+00 1.114589999999999970e+00 6.459209999999999674e+00 1.310009999999999897e+00 6.122679999999999900e+00 6.701200000000000045e+00 7.109759999999999636e+00 1.347650000000000015e+00 6.629710000000000214e+00 6.662010000000000431e+00 6.341160000000000352e+00
1.024329999999999963e+01 2.683959999999999901e+00 2.365470000000000184e+00 1.037567999999999913e+01 2.736829999999999874e+00 7.786480000000000068e+00 1.044410000000000061e+01 8.093999999999999417e+00 2.343900000000000095e+00 1.138300000000000006e-01 8.337020000000000763e+00 7.810069999999999624e+00 5.553320000000000256e+00 2.391750000000000043e+00 2.668880000000000141e+00 5.477299999999999613e+00 2.938959999999999795e+00 7.241460000000000008e+00 5.133440000000000225e+00 7.485289999999999999e+00 2.278970000000000162e+00 5.077309999999999768e+00 7.524630000000000152e+00 7.669929999999999914e+00 2.672169999999999934e+00 5.170040000000000191e+00 2.466579999999999995e+00 2.198049999999999837e+00 5.425010000000000332e+00 7.893609999999999793e+00 2.597949999999999982e+00 1.083752999999999922e+01 2.956290000000000084e+00 3.100089999999999790e+00 1.082713000000000036e+01 7.393220000000000347e+00 7.762730000000000352e+00 4.861629999999999896e+00 2.534860000000000113e+00 8.037380000000000635e+00 5.586450000000000138e+00 8.009629999999999583e+00 7.651889999999999858e+00 1.023093000000000075e+01 2.003540000000000099e+00 7.244110000000000049e+00 1.050882999999999967e+01 7.490949999999999775e+00 2.272330000000000183e+00 2.379350000000000076e+00 5.389910000000000423e+00 3.110380000000000145e+00 2.363080000000000069e+00 1.019638999999999918e+01 2.190500000000000114e+00 7.567339999999999733e+00 5.052330000000000432e+00 2.692289999999999850e+00 8.065480000000000871e+00 1.039288999999999952e+01 8.230999999999999872e+00 2.035480000000000178e+00 5.270909999999999762e+00 7.654749999999999943e+00 2.415690000000000115e+00 1.039919000000000082e+01 7.957379999999999676e+00 7.611489999999999867e+00 4.687909999999999577e+00 7.866710000000000313e+00 8.223829999999999529e+00 1.010997000000000057e+01 1.029320000000000057e+01 5.077110000000000234e+00 5.189409999999999634e+00 1.043479999999999919e+01 5.228110000000000035e+00 3.211200000000000165e-01 1.041990000000000016e+01 9.969739999999999824e+00 5.078640000000000043e+00 1.949400000000000022e-01 9.740000000000000394e-03 2.777800000000000269e-01 5.201559999999999739e+00 5.469979999999999620e+00 5.028539999999999566e+00 5.314680000000000071e+00 4.850939999999999586e+00 1.024979000000000084e+01 5.497259999999999813e+00 1.054983000000000004e+01 4.699980000000000047e+00 5.140780000000000349e+00 1.062883000000000067e+01 1.042558999999999969e+01 5.911959999999999660e+00 4.849949999999999761e+00 6.909709999999999575e+00 7.102389999999999759e+00 4.147289999999999921e+00 9.254879999999999995e+00 6.217419999999999725e+00 9.571249999999999147e+00 3.061650000000000205e+00 3.534559999999999924e+00 8.692370000000000374e+00 8.077120000000000744e+00 9.296670000000000655e+00 3.460679999999999978e+00 5.958540000000000170e+00 9.039279999999999760e+00 3.643949999999999800e+00 8.345799999999999885e-01 9.165910000000000224e+00 9.138019999999999143e+00 8.369400000000000173e-01 8.616410000000000124e+00 9.298069999999999169e+00 8.555239999999999512e+00 3.815869999999999873e+00 3.675879999999999814e+00 1.169370000000000021e+00 4.845950000000000202e+00 9.778200000000000225e-01 6.905660000000000132e+00 3.876970000000000027e+00 6.313150000000000261e+00 1.229219999999999979e+00 8.390689999999999316e+00 6.099709999999999965e+00 6.293870000000000076e+00 9.174860000000000682e+00 7.414300000000000335e-01 1.440730000000000066e+00 9.025840000000000529e+00 8.955310000000000770e+00 6.093420000000000059e+00 9.526980000000000004e+00 6.320240000000000080e+00 1.677059999999999995e+00 9.775209999999999511e+00 4.291909999999999670e+00 3.333750000000000213e+00 4.266729999999999912e+00 9.018199999999999550e-01 3.183460000000000178e+00 3.253080000000000194e+00 3.104399999999999937e-01 9.544010000000000105e+00 1.331520000000000037e+00 5.878599999999999604e+00 4.364830000000000432e+00 4.183340000000000281e+00 5.719030000000000058e+00 8.788779999999999148e+00 1.693810000000000038e+00 3.071450000000000014e+00 3.582190000000000207e+00 9.926099999999999923e+00 1.480900000000000105e+00 9.131209999999999383e+00 1.360409999999999897e+00 6.130100000000000549e-01 4.439630000000000187e+00 9.332860000000000156e+00 6.800690000000000346e+00 9.207029999999999603e+00 3.893819999999999837e+00 7.134089999999999598e+00 3.930349999999999788e+00 4.306650000000000311e+00 3.000199999999999978e+00 5.504529999999999923e+00 4.073940000000000339e+00 9.024559999999999249e+00 1.322610000000000063e+00 3.493679999999999897e+00 1.008578999999999937e+01 5.512979999999999769e+00 4.352439999999999642e+00 4.563310000000000421e+00 3.691749999999999865e+00 1.441580000000000084e+00 1.332929999999999948e+00 1.405620000000000092e+00 9.283099999999999241e+00 6.752570000000000405e+00 3.793190000000000062e+00 1.538119999999999932e+00 6.798729999999999940e+00 9.138139999999999930e+00 6.222190000000000332e+00 1.905280000000000085e+00 4.331529999999999880e+00 6.627559999999999896e+00 9.062299999999999800e-01 9.498820000000000263e+00 6.454579999999999984e+00 6.438419999999999810e+00 3.574460000000000193e+00 6.894169999999999909e+00 6.850939999999999586e+00 8.886269999999999669e+00 9.498299999999999521e-01 4.377110000000000056e+00 1.709910000000000041e+00 2.144829999999999792e+00 4.024300000000000210e+00 9.390359999999999374e+00 1.637999999999999901e+00 9.684250000000000469e+00 1.530829999999999913e+00 1.903550000000000075e+00 1.797779999999999934e+00 7.385229999999999961e+00 6.426859999999999573e+00 3.808209999999999873e+00 1.372910000000000075e+00 3.383710000000000218e+00 6.412580000000000169e+00 6.452930000000000277e+00 6.985310000000000130e+00 9.798920000000000741e+00 3.376199999999999757e-01 7.349619999999999820e+00 1.068753000000000064e+01 5.524320000000000341e+00 1.139720000000000066e+00 4.166269999999999918e+00 6.614359999999999573e+00 4.759599999999999831e+00 2.993450000000000166e+00 9.110659999999999314e+00 1.082489999999999952e+00 8.707280000000000797e+00 3.947400000000000020e+00 1.137469999999999981e+00 8.948779999999999291e+00 9.381309999999999150e+00 6.263309999999999711e+00 8.174540000000000362e+00 6.078079999999999927e+00 9.862920000000000798e+00 4.286349999999999660e+00 8.937509999999999621e+00 9.041119999999999379e+00 9.145279999999999632e+00 3.567110000000000003e+00 5.827069999999999972e+00 9.501229999999999620e+00 8.274089999999999279e+00 4.541080000000000005e+00 1.324160000000000004e+00 1.195910000000000029e+00 9.876289999999999125e+00 9.656500000000000083e-01 6.150269999999999904e+00 1.667059999999999986e+00 6.943150000000000155e+00 1.649799999999999933e+00 1.260990000000000055e+00 9.319459999999999411e+00 6.484779999999999767e+00 6.732789999999999608e+00 1.437699999999999978e+00 1.458269999999999955e+00 7.238290000000000113e+00 1.993389999999999995e+00 7.323640000000000150e+00 6.360859999999999737e+00 7.106670000000000265e+00 7.233000000000000540e-01 6.224800000000000333e-01 6.936670000000000336e+00 6.447160000000000224e+00
5.475000000000000006e-02 2.432170000000000165e+00 2.385279999999999845e+00 1.013507000000000069e+01 2.501980000000000093e+00 7.623569999999999958e+00 1.927999999999999992e-01 7.709469999999999601e+00 2.649890000000000079e+00 1.016127000000000002e+01 7.870449999999999946e+00 7.677059999999999995e+00 5.362239999999999895e+00 2.809670000000000112e+00 2.175489999999999924e+00 4.938310000000000421e+00 2.320349999999999913e+00 7.576690000000000147e+00 5.109829999999999650e+00 7.806110000000000326e+00 2.539550000000000196e+00 5.131599999999999717e+00 8.184160000000000323e+00 7.430690000000000239e+00 2.642009999999999970e+00 4.908809999999999896e+00 2.597679999999999989e+00 2.371719999999999828e+00 4.793790000000000440e+00 7.797860000000000014e+00 2.770179999999999865e+00 1.014714000000000027e+01 2.348500000000000032e+00 2.531899999999999817e+00 1.039213999999999949e+01 7.589170000000000194e+00 7.680900000000000283e+00 5.492180000000000284e+00 2.493559999999999999e+00 7.677999999999999936e+00 4.752860000000000085e+00 7.475430000000000241e+00 8.077640000000000597e+00 1.040493999999999986e+01 2.637980000000000214e+00 7.751450000000000173e+00 5.680999999999999939e-02 7.408820000000000405e+00 2.673389999999999933e+00 2.271170000000000133e+00 4.889210000000000278e+00 2.358140000000000125e+00 2.158959999999999990e+00 6.487999999999999323e-02 2.075759999999999827e+00 7.514450000000000074e+00 5.198470000000000368e+00 2.638599999999999834e+00 7.583840000000000359e+00 1.006115999999999921e+01 7.498960000000000292e+00 2.790970000000000173e+00 4.933080000000000354e+00 7.576120000000000410e+00 2.413930000000000131e+00 1.011463999999999963e+01 7.477590000000000181e+00 7.643559999999999910e+00 5.068800000000000416e+00 7.856690000000000396e+00 7.893629999999999924e+00 9.880919999999999703e+00 1.011326999999999998e+01 4.841169999999999973e+00 5.134699999999999598e+00 2.204500000000000071e-01 5.327440000000000175e+00 8.067000000000000559e-02 1.356100000000000083e-01 1.059193999999999924e+01 5.008270000000000444e+00 1.010816999999999943e+01 1.055753999999999948e+01 9.958899999999999864e+00 5.170040000000000191e+00 5.303560000000000052e+00 5.158599999999999852e+00 5.345530000000000115e+00 5.476609999999999978e+00 1.004603999999999964e+01 5.530420000000000336e+00 1.048999999999999932e-02 4.749889999999999723e+00 5.350299999999999834e+00 1.029463999999999935e+01 1.009354000000000084e+01 3.611139999999999795e+00 3.770700000000000163e+00 3.873390000000000111e+00 4.018679999999999808e+00 4.610289999999999999e+00 8.965210000000000790e+00 4.525979999999999670e+00 9.584469999999999601e+00 3.165849999999999831e+00 3.738360000000000127e+00 9.585459999999999425e+00 8.783229999999999649e+00 8.856889999999999930e+00 4.098569999999999602e+00 3.550580000000000069e+00 9.073650000000000659e+00 4.015559999999999796e+00 8.717670000000000030e+00 9.334080000000000155e+00 9.259119999999999351e+00 3.684689999999999799e+00 9.038850000000000051e+00 9.248649999999999594e+00 8.646380000000000621e+00 3.813820000000000210e+00 5.945500000000000229e-01 9.713100000000000067e-01 3.876180000000000181e+00 9.127800000000000358e-01 6.379929999999999879e+00 3.893510000000000026e+00 5.970279999999999809e+00 1.180279999999999996e+00 3.258249999999999869e+00 5.954410000000000203e+00 6.202670000000000350e+00 8.765549999999999287e+00 8.297499999999999876e-01 1.205629999999999979e+00 9.171229999999999549e+00 1.192630000000000079e+00 6.362589999999999968e+00 8.969310000000000116e+00 6.489539999999999864e+00 1.158519999999999994e+00 8.496019999999999683e+00 6.024040000000000283e+00 6.216610000000000191e+00 4.236970000000000347e+00 1.412290000000000045e+00 3.582969999999999988e+00 3.702939999999999898e+00 1.876840000000000064e+00 8.904379999999999740e+00 3.746820000000000039e+00 6.884990000000000165e+00 3.854909999999999837e+00 4.326439999999999841e+00 7.134509999999999685e+00 8.992779999999999774e+00 9.168409999999999727e+00 1.096400000000000041e+00 3.768019999999999925e+00 8.907270000000000465e+00 1.427950000000000053e+00 8.899309999999999832e+00 8.940939999999999444e+00 6.650970000000000049e+00 3.873740000000000183e+00 9.094829999999999970e+00 6.438509999999999955e+00 8.960399999999999920e+00 3.393190000000000150e+00 3.275329999999999853e+00 1.465130000000000043e+00 3.266360000000000152e+00 3.429660000000000153e+00 6.590519999999999712e+00 3.705309999999999881e+00 8.772800000000000153e+00 1.146060000000000079e+00 3.428539999999999921e+00 8.756000000000000227e+00 6.425019999999999953e+00 1.787849999999999939e+00 4.134800000000000142e-01 4.097059999999999924e+00 1.380700000000000038e+00 7.664600000000000302e-01 8.932460000000000733e+00 1.148760000000000003e+00 6.206030000000000157e+00 3.820069999999999855e+00 1.481980000000000075e+00 6.357269999999999754e+00 8.912300000000000111e+00 6.694890000000000008e+00 1.254299999999999971e+00 3.628890000000000171e+00 6.221239999999999881e+00 7.453899999999999970e-01 8.712089999999999890e+00 6.433180000000000121e+00 6.405369999999999564e+00 3.914159999999999862e+00 6.647549999999999848e+00 6.114889999999999937e+00 8.869210000000000704e+00 1.054489999999999927e+00 4.021819999999999951e+00 1.429480000000000084e+00 7.035099999999999687e-01 4.149119999999999919e+00 6.706870000000000331e+00 1.020144999999999946e+01 9.074439999999999173e+00 1.215430000000000010e+00 9.681600000000000206e-01 9.153389999999999915e+00 6.162650000000000183e+00 6.852610000000000312e+00 4.125530000000000364e+00 1.118749999999999911e+00 6.088029999999999831e+00 3.904739999999999878e+00 6.427789999999999893e+00 7.111469999999999736e+00 9.498860000000000525e+00 1.002089999999999925e+00 6.294349999999999667e+00 9.325900000000000745e+00 6.105909999999999727e+00 1.144870000000000054e+00 3.451540000000000052e+00 4.305340000000000167e+00 1.500029999999999974e+00 3.666110000000000202e+00 9.127079999999999416e+00 1.736159999999999926e+00 8.650959999999999539e+00 3.401069999999999816e+00 1.282059999999999977e+00 8.841559999999999420e+00 8.847350000000000492e+00 6.378239999999999910e+00 3.963330000000000020e+00 3.511439999999999895e+00 6.462690000000000268e+00 3.424920000000000186e+00 8.824519999999999698e+00 6.677629999999999733e+00 8.911989999999999412e+00 3.615950000000000220e+00 6.627939999999999721e+00 8.891859999999999431e+00 8.772560000000000358e+00 1.346000000000000085e+00 1.072799999999999976e+00 1.508259999999999934e+00 1.337329999999999908e+00 1.489749999999999908e+00 6.485170000000000101e+00 1.433559999999999945e+00 6.515850000000000364e+00 1.236040000000000028e+00 4.634400000000000186e-01 6.668820000000000192e+00 6.147429999999999950e+00 6.057450000000000223e+00 1.496569999999999956e+00 7.290200000000000014e-01 6.364770000000000039e+00 1.327709999999999946e+00 6.065509999999999735e+00 6.435850000000000293e+00 6.827549999999999564e+00 1.228269999999999973e+00 5.929380000000000095e+00 6.455869999999999997e+00 6.358789999999999942e+00
1.006677000000000000e+01 2.250340000000000007e+00 2.284019999999999939e+00 2.275399999999999923e-01 2.173249999999999904e+00 7.373090000000000366e+00 1.006176999999999921e+01 7.298510000000000275e+00 2.935950000000000060e+00 1.014295000000000080e+01 7.743970000000000020e+00 7.427170000000000272e+00 5.206780000000000186e+00 2.327010000000000023e+00 2.541339999999999932e+00 5.244379999999999598e+00 2.958000000000000185e+00 7.881090000000000373e+00 5.155499999999999972e+00 7.551149999999999807e+00 2.337390000000000079e+00 4.841210000000000235e+00 8.108399999999999608e+00 7.552940000000000431e+00 2.912599999999999856e+00 5.051219999999999821e+00 1.930339999999999945e+00 2.363729999999999887e+00 5.204200000000000159e+00 8.003330000000000055e+00 2.768369999999999997e+00 -5.810000000000000060e-03 2.262630000000000141e+00 2.695209999999999884e+00 1.050966000000000022e+01 7.435209999999999653e+00 7.509730000000000238e+00 4.952130000000000365e+00 2.574269999999999836e+00 7.692249999999999588e+00 5.223910000000000053e+00 7.545930000000000248e+00 7.871870000000000367e+00 1.010086000000000084e+01 2.204209999999999781e+00 7.672489999999999810e+00 6.640999999999999681e-02 7.334920000000000329e+00 2.701789999999999914e+00 2.601789999999999825e+00 5.095509999999999984e+00 2.620950000000000113e+00 2.575639999999999930e+00 9.807719999999999771e+00 2.435589999999999922e+00 7.818979999999999819e+00 4.921520000000000117e+00 2.465040000000000120e+00 7.859619999999999607e+00 2.711200000000000276e-01 7.245669999999999611e+00 2.580090000000000217e+00 5.286410000000000053e+00 7.375639999999999752e+00 2.300819999999999865e+00 1.015732000000000035e+01 7.366539999999999644e+00 8.152400000000000091e+00 5.375939999999999941e+00 8.217959999999999710e+00 7.847109999999999808e+00 9.975989999999999469e+00 9.945180000000000575e+00 4.831629999999999647e+00 4.990099999999999980e+00 1.895600000000000063e-01 5.142940000000000289e+00 3.636099999999999888e-01 1.615300000000000069e-01 1.047415999999999947e+01 4.675209999999999866e+00 1.600900000000000101e-01 1.047156000000000020e+01 9.903819999999999624e+00 4.736570000000000391e+00 5.364460000000000228e+00 5.138270000000000337e+00 5.283660000000000245e+00 5.369729999999999670e+00 1.007461999999999946e+01 4.971169999999999867e+00 1.044796000000000014e+01 4.764120000000000132e+00 5.353570000000000384e+00 1.012285999999999930e+01 9.970999999999999308e-02 3.618199999999999861e+00 4.030280000000000307e+00 3.746519999999999850e+00 4.141860000000000319e+00 4.261250000000000426e+00 8.854710000000000747e+00 3.487429999999999808e+00 9.429320000000000590e+00 3.807119999999999838e+00 3.902099999999999902e+00 9.434580000000000410e+00 8.755850000000000577e+00 8.893720000000000070e+00 3.473040000000000127e+00 3.945110000000000117e+00 8.774050000000000793e+00 3.771170000000000133e+00 1.288620000000000099e+00 8.382569999999999411e+00 8.604229999999999379e+00 3.458959999999999813e+00 8.545070000000000832e+00 9.617350000000000065e+00 8.872279999999999944e+00 3.969930000000000181e+00 1.088740000000000041e+00 1.294329999999999981e+00 3.917800000000000171e+00 1.044289999999999941e+00 6.327899999999999636e+00 3.981559999999999988e+00 6.656259999999999621e+00 1.001030000000000086e+00 3.794509999999999827e+00 6.695409999999999862e+00 6.138779999999999681e+00 8.957959999999999923e+00 7.474399999999999933e-01 9.899599999999999511e-01 8.987289999999999779e+00 1.082219999999999960e+00 6.314090000000000202e+00 8.930559999999999832e+00 6.172979999999999912e+00 1.334999999999999964e+00 8.898080000000000211e+00 6.327810000000000379e+00 6.470049999999999635e+00 3.752489999999999881e+00 1.275940000000000074e+00 3.764879999999999782e+00 3.940990000000000215e+00 1.658740000000000103e+00 8.748509999999999565e+00 3.750350000000000072e+00 6.574629999999999974e+00 3.520859999999999879e+00 3.411880000000000024e+00 6.764610000000000234e+00 8.856230000000000047e+00 8.522880000000000678e+00 4.262299999999999978e-01 3.834529999999999994e+00 8.906549999999999301e+00 1.702090000000000103e+00 8.703509999999999636e+00 8.739300000000000068e+00 6.039209999999999745e+00 3.850350000000000161e+00 9.459009999999999252e+00 4.876559999999999562e+00 8.821640000000000370e+00 4.073129999999999917e+00 3.727390000000000203e+00 9.171099999999999808e-01 6.289450000000000429e+00 4.236299999999999955e+00 6.197009999999999685e+00 3.839309999999999778e+00 9.233650000000000801e+00 1.420970000000000066e+00 3.910610000000000142e+00 9.090310000000000556e+00 6.168590000000000018e+00 8.786599999999999966e-01 8.789300000000000779e+00 3.844059999999999810e+00 1.341059999999999919e+00 9.959599999999999564e-01 8.781750000000000611e+00 1.236890000000000045e+00 6.397920000000000051e+00 4.174680000000000391e+00 1.121459999999999901e+00 6.178609999999999935e+00 6.747819999999999929e+00 6.240669999999999717e+00 1.271330000000000071e+00 4.159670000000000201e+00 6.277809999999999668e+00 8.992700000000000138e-01 9.346909999999999386e+00 6.271810000000000329e+00 6.416199999999999903e+00 4.015749999999999709e+00 6.523869999999999614e+00 6.341190000000000104e+00 8.909050000000000580e+00 1.025439999999999907e+00 4.336909999999999599e+00 2.332430000000000003e+00 3.776809999999999778e+00 3.830960000000000143e+00 6.399079999999999657e+00 9.446130000000000138e+00 8.726060000000000372e+00 1.114309999999999912e+00 1.367720000000000047e+00 9.022669999999999746e+00 6.385030000000000427e+00 6.339850000000000207e+00 3.669439999999999813e+00 1.001980000000000093e+00 8.821509999999999962e+00 3.713490000000000180e+00 6.336389999999999745e+00 6.523340000000000138e+00 8.634790000000000632e+00 7.744299999999999518e-01 8.890980000000000771e+00 9.274060000000000414e+00 6.285449999999999982e+00 1.067439999999999944e+00 8.841900000000000315e-01 3.331989999999999785e+00 1.603439999999999976e+00 3.406460000000000043e+00 8.118629999999999569e+00 1.602479999999999905e+00 9.970549999999999358e+00 9.958900000000000530e-01 1.059500000000000108e+00 9.044589999999999463e+00 8.938179999999999126e+00 6.227030000000000065e+00 3.718739999999999934e+00 3.747660000000000213e+00 6.862190000000000012e+00 3.797520000000000007e+00 8.654180000000000206e+00 6.170420000000000016e+00 9.175509999999999167e+00 3.543940000000000090e+00 6.240719999999999601e+00 9.467589999999999506e+00 6.609309999999999796e+00 1.284599999999999964e+00 1.941769999999999996e+00 9.134600000000000497e-01 1.434949999999999948e+00 1.218380000000000019e+00 6.296450000000000102e+00 1.313290000000000068e+00 6.826329999999999565e+00 1.592729999999999979e+00 1.102330000000000032e+00 3.538250000000000117e+00 5.373039999999999594e+00 6.517290000000000028e+00 9.232200000000000406e-01 1.515179999999999971e+00 6.522470000000000212e+00 1.704890000000000017e+00 6.946349999999999802e+00 6.436289999999999623e+00 6.215720000000000134e+00 1.294859999999999900e+00 6.202420000000000044e+00 6.844750000000000334e+00 6.272770000000000401e+00