1.035097764400000031e+01 0.000000000000000000e+00 0.000000000000000000e+00 -2.102332700000000137e-02 1.072646667499999928e+01 0.000000000000000000e+00 1.120056399999999966e-02 1.402369000000000098e-03 1.028588362700000047e+01
1.037703093300000035e+01 0.000000000000000000e+00 0.000000000000000000e+00 -2.107624300000000145e-02 1.075346506500000032e+01 0.000000000000000000e+00 1.122875599999999946e-02 1.405898999999999951e-03 1.031177307499999962e+01
1.026258913600000078e+01 0.000000000000000000e+00 0.000000000000000000e+00 -2.084380599999999945e-02 1.063487181100000001e+01 0.000000000000000000e+00 1.110492100000000024e-02 1.390394000000000092e-03 1.019805096700000036e+01
1.037990644399999951e+01 0.000000000000000000e+00 0.000000000000000000e+00 -2.108208300000000146e-02 1.075644488700000068e+01 0.000000000000000000e+00 1.123186699999999955e-02 1.406289000000000020e-03 1.031463050300000006e+01
1.050933915100000071e+01 0.000000000000000000e+00 0.000000000000000000e+00 -2.134496699999999941e-02 1.089057285700000044e+01 0.000000000000000000e+00 1.137192300000000079e-02 1.423825000000000091e-03 1.044324924900000084e+01
1.037379417300000028e+01 0.000000000000000000e+00 0.000000000000000000e+00 -2.106966899999999920e-02 1.075011088900000011e+01 0.000000000000000000e+00 1.122525299999999927e-02 1.405460999999999993e-03 1.030855666999999976e+01
1.021672581199999996e+01 0.000000000000000000e+00 0.000000000000000000e+00 -2.075065499999999979e-02 1.058734476200000074e+01 0.000000000000000000e+00 1.105529300000000076e-02 1.384180999999999953e-03 1.015247606199999986e+01
1.061417160799999948e+01 0.000000000000000000e+00 0.000000000000000000e+00 -2.155788700000000127e-02 1.099920818500000053e+01 0.000000000000000000e+00 1.148536000000000001e-02 1.438026999999999925e-03 1.054742244800000073e+01
1.032883686399999945e+01 0.000000000000000000e+00 0.000000000000000000e+00 -2.097835799999999903e-02 1.070352272200000066e+01 0.000000000000000000e+00 1.117660600000000039e-02 1.399370000000000041e-03 1.026388208300000038e+01
1.030279559100000064e+01 0.000000000000000000e+00 0.000000000000000000e+00 -2.092546699999999968e-02 1.067653678299999953e+01 0.000000000000000000e+00 1.114842700000000068e-02 1.395842000000000003e-03 1.023800457499999972e+01
1.038109732799999918e+01 0.000000000000000000e+00 0.000000000000000000e+00 -2.108450200000000149e-02 1.075767897200000078e+01 0.000000000000000000e+00 1.123315599999999935e-02 1.406450000000000061e-03 1.031581389900000012e+01
1.051659698799999987e+01 0.000000000000000000e+00 0.000000000000000000e+00 -2.135970800000000155e-02 1.089809397700000027e+01 0.000000000000000000e+00 1.137977700000000064e-02 1.424808000000000064e-03 1.045046144400000010e+01
1.034663693199999912e+01 0.000000000000000000e+00 0.000000000000000000e+00 -2.101451099999999961e-02 1.072196849999999912e+01 0.000000000000000000e+00 1.119586699999999997e-02 1.401780999999999947e-03 1.028157021200000010e+01
1.037013996800000015e+01 0.000000000000000000e+00 0.000000000000000000e+00 -2.106224699999999922e-02 1.074632412599999931e+01 0.000000000000000000e+00 1.122129900000000055e-02 1.404965999999999897e-03 1.030492544600000038e+01
1.040322359399999996e+01 0.000000000000000000e+00 0.000000000000000000e+00 -2.112944099999999881e-02 1.078060788300000006e+01 0.000000000000000000e+00 1.125709800000000010e-02 1.409447999999999994e-03 1.033780101900000048e+01
1.034386231300000070e+01 0.000000000000000000e+00 0.000000000000000000e+00 -2.100887599999999925e-02 1.071909323000000036e+01 0.000000000000000000e+00 1.119286499999999976e-02 1.401405000000000099e-03 1.027881304199999946e+01
1.034798265100000059e+01 0.000000000000000000e+00 0.000000000000000000e+00 -2.101724400000000090e-02 1.072336303600000029e+01 0.000000000000000000e+00 1.119732300000000035e-02 1.401963999999999901e-03 1.028290746799999944e+01
1.039259894599999967e+01 0.000000000000000000e+00 0.000000000000000000e+00 -2.110786200000000154e-02 1.076959781899999946e+01 0.000000000000000000e+00 1.124560099999999917e-02 1.408008000000000089e-03 1.032724318600000046e+01
1.038770493900000069e+01 0.000000000000000000e+00 0.000000000000000000e+00 -2.109792200000000159e-02 1.076452627799999995e+01 0.000000000000000000e+00 1.124030600000000026e-02 1.407344999999999950e-03 1.032237995600000069e+01
1.029763426599999931e+01 0.000000000000000000e+00 0.000000000000000000e+00 -2.091498400000000105e-02 1.067118822700000003e+01 0.000000000000000000e+00 1.114284200000000002e-02 1.395142000000000040e-03 1.023287570799999990e+01
1.044591060900000024e+01 0.000000000000000000e+00 0.000000000000000000e+00 -2.121614100000000086e-02 1.082484340000000067e+01 0.000000000000000000e+00 1.130328899999999935e-02 1.415231000000000084e-03 1.038021958899999930e+01
1.015556603699999982e+01 0.000000000000000000e+00 0.000000000000000000e+00 -2.062643700000000094e-02 1.052396637400000046e+01 0.000000000000000000e+00 1.098911300000000001e-02 1.375895000000000026e-03 1.009170090199999947e+01
1.039581330600000086e+01 0.000000000000000000e+00 0.000000000000000000e+00 -2.111439099999999972e-02 1.077292878099999918e+01 0.000000000000000000e+00 1.124907999999999984e-02 1.408444000000000015e-03 1.033043733200000069e+01
1.045440681500000046e+01 0.000000000000000000e+00 0.000000000000000000e+00 -2.123339700000000108e-02 1.083364781200000060e+01 0.000000000000000000e+00 1.131248200000000044e-02 1.416382000000000101e-03 1.038866236500000007e+01
1.041009382999999922e+01 0.000000000000000000e+00 0.000000000000000000e+00 -2.114339499999999886e-02 1.078772734200000016e+01 0.000000000000000000e+00 1.126453200000000071e-02 1.410379000000000016e-03 1.034462805000000074e+01
1.042924079800000037e+01 0.000000000000000000e+00 0.000000000000000000e+00 -2.118228399999999914e-02 1.080756887999999982e+01 0.000000000000000000e+00 1.128525099999999962e-02 1.412973000000000093e-03 1.036365460999999932e+01
1.035186690199999937e+01 0.000000000000000000e+00 0.000000000000000000e+00 -2.102513300000000140e-02 1.072738819099999930e+01 0.000000000000000000e+00 1.120152599999999984e-02 1.402489999999999943e-03 1.028676729300000048e+01
1.045421155500000054e+01 0.000000000000000000e+00 0.000000000000000000e+00 -2.123299999999999840e-02 1.083344546900000083e+01 0.000000000000000000e+00 1.131227100000000048e-02 1.416355999999999908e-03 1.038846833300000050e+01
1.036495942900000067e+01 0.000000000000000000e+00 0.000000000000000000e+00 -2.105172500000000030e-02 1.074095565900000082e+01 0.000000000000000000e+00 1.121569300000000054e-02 1.404263999999999903e-03 1.029977748599999998e+01
1.046829088099999971e+01 0.000000000000000000e+00 0.000000000000000000e+00 -2.126159600000000066e-02 1.084803553200000081e+01 0.000000000000000000e+00 1.132750599999999934e-02 1.418262999999999902e-03 1.040245911799999945e+01
1.024077845599999925e+01 0.000000000000000000e+00 0.000000000000000000e+00 -2.079950800000000127e-02 1.061226993300000032e+01 0.000000000000000000e+00 1.108132000000000041e-02 1.387439000000000077e-03 1.017637744700000013e+01
1.028030340099999940e+01 0.000000000000000000e+00 0.000000000000000000e+00 -2.087978500000000140e-02 1.065322867299999920e+01 0.000000000000000000e+00 1.112408900000000020e-02 1.392793999999999933e-03 1.021565383199999921e+01
1.042978391399999971e+01 0.000000000000000000e+00 0.000000000000000000e+00 -2.118338700000000144e-02 1.080813169800000040e+01 0.000000000000000000e+00 1.128583799999999943e-02 1.413046000000000050e-03 1.036419431000000024e+01
1.037886478699999948e+01 0.000000000000000000e+00 0.000000000000000000e+00 -2.107996700000000154e-02 1.075536544300000052e+01 0.000000000000000000e+00 1.123073999999999947e-02 1.406148000000000077e-03 1.031359539700000028e+01
1.049285786099999918e+01 0.000000000000000000e+00 0.000000000000000000e+00 -2.131149300000000080e-02 1.087349369700000068e+01 0.000000000000000000e+00 1.135408899999999950e-02 1.421591999999999951e-03 1.042687160500000054e+01
1.030936320700000053e+01 0.000000000000000000e+00 0.000000000000000000e+00 -2.093880600000000078e-02 1.068334264499999975e+01 0.000000000000000000e+00 1.115553399999999994e-02 1.396731000000000014e-03 1.024453089000000006e+01
1.052023127500000044e+01 0.000000000000000000e+00 0.000000000000000000e+00 -2.136708899999999883e-02 1.090186010100000047e+01 0.000000000000000000e+00 1.138370900000000054e-02 1.425300000000000004e-03 1.045407287599999968e+01
1.045131283599999961e+01 0.000000000000000000e+00 0.000000000000000000e+00 -2.122711299999999884e-02 1.083044159600000000e+01 0.000000000000000000e+00 1.130913400000000020e-02 1.415962999999999901e-03 1.038558784299999971e+01
1.038832638599999925e+01 0.000000000000000000e+00 0.000000000000000000e+00 -2.109918399999999999e-02 1.076517026800000032e+01 0.000000000000000000e+00 1.124097800000000043e-02 1.407428999999999972e-03 1.032299749499999919e+01
1.035316155900000012e+01 0.000000000000000000e+00 0.000000000000000000e+00 -2.102776300000000140e-02 1.072872981299999928e+01 0.000000000000000000e+00 1.120292699999999968e-02 1.402664999999999988e-03 1.028805380800000080e+01
1.028411854800000036e+01 0.000000000000000000e+00 0.000000000000000000e+00 -2.088753299999999979e-02 1.065718221700000079e+01 0.000000000000000000e+00 1.112821699999999928e-02 1.393310999999999942e-03 1.021944498599999918e+01
1.014280879600000063e+01 0.000000000000000000e+00 0.000000000000000000e+00 -2.060052700000000042e-02 1.051074635500000021e+01 0.000000000000000000e+00 1.097530900000000080e-02 1.374166000000000016e-03 1.007902388800000004e+01
1.037993763300000083e+01 0.000000000000000000e+00 0.000000000000000000e+00 -2.108214599999999952e-02 1.075647720799999973e+01 0.000000000000000000e+00 1.123190100000000073e-02 1.406293000000000083e-03 1.031466149599999937e+01
1.039370319700000067e+01 0.000000000000000000e+00 0.000000000000000000e+00 -2.111010500000000054e-02 1.077074212700000011e+01 0.000000000000000000e+00 1.124679599999999988e-02 1.408158000000000066e-03 1.032834049300000068e+01
1.042927671900000064e+01 0.000000000000000000e+00 0.000000000000000000e+00 -2.118235599999999941e-02 1.080760610399999955e+01 0.000000000000000000e+00 1.128528999999999990e-02 1.412978000000000064e-03 1.036369030400000035e+01
1.038943673500000031e+01 0.000000000000000000e+00 0.000000000000000000e+00 -2.110143999999999909e-02 1.076632089599999986e+01 0.000000000000000000e+00 1.124217999999999919e-02 1.407580000000000072e-03 1.032410086099999980e+01
1.042498505300000033e+01 0.000000000000000000e+00 0.000000000000000000e+00 -2.117364000000000052e-02 1.080315875400000003e+01 0.000000000000000000e+00 1.128064600000000008e-02 1.412396000000000007e-03 1.035942562700000025e+01
1.052634258600000017e+01 0.000000000000000000e+00 0.000000000000000000e+00 -2.137950200000000162e-02 1.090819310400000042e+01 0.000000000000000000e+00 1.139032199999999960e-02 1.426128000000000031e-03 1.046014575499999921e+01
1.043282585799999929e+01 0.000000000000000000e+00 0.000000000000000000e+00 -2.118956500000000048e-02 1.081128398999999973e+01 0.000000000000000000e+00 1.128912999999999965e-02 1.413458000000000032e-03 1.036721712299999965e+01
1.032963447300000048e+01 0.000000000000000000e+00 0.000000000000000000e+00 -2.097997799999999982e-02 1.070434926499999939e+01 0.000000000000000000e+00 1.117746900000000064e-02 1.399478000000000007e-03 1.026467467700000036e+01
