1.020897999099999964e+01 0.000000000000000000e+00 0.000000000000000000e+00 -2.638995300000000072e-02 1.024062007300000054e+01 0.000000000000000000e+00 -2.714677600000000093e-02 1.791419500000000081e-02 1.065086512699999943e+01
1.019515983400000003e+01 0.000000000000000000e+00 0.000000000000000000e+00 -2.635421799999999870e-02 1.022675713099999939e+01 0.000000000000000000e+00 -2.711004900000000065e-02 1.788991900000000065e-02 1.063644688399999971e+01
1.008872625799999945e+01 0.000000000000000000e+00 0.000000000000000000e+00 -2.607908999999999922e-02 1.011999369099999946e+01 0.000000000000000000e+00 -2.682703000000000171e-02 1.770315500000000167e-02 1.052540643899999928e+01
1.012905976799999941e+01 0.000000000000000000e+00 0.000000000000000000e+00 2.377276399999999831e-02 1.019609201299999945e+01 0.000000000000000000e+00 -5.195148000000000127e-03 4.359412499999999746e-02 1.056168538200000029e+01
1.018663701600000060e+01 0.000000000000000000e+00 0.000000000000000000e+00 2.390789700000000087e-02 1.025405029699999915e+01 0.000000000000000000e+00 -5.224679000000000302e-03 4.384193000000000118e-02 1.062172183100000034e+01
1.035084116500000029e+01 0.000000000000000000e+00 0.000000000000000000e+00 -2.675666000000000155e-02 1.038292090899999920e+01 0.000000000000000000e+00 -2.752399999999999985e-02 1.816312600000000166e-02 1.079886661499999967e+01
1.024611031000000061e+01 0.000000000000000000e+00 0.000000000000000000e+00 -2.648593399999999917e-02 1.027786546799999989e+01 0.000000000000000000e+00 -2.724551000000000056e-02 1.797935000000000158e-02 1.068960259400000012e+01
1.030156070600000007e+01 0.000000000000000000e+00 0.000000000000000000e+00 2.417762199999999931e-02 1.036973453000000056e+01 0.000000000000000000e+00 -5.283623000000000312e-03 4.433654599999999751e-02 1.074155406400000068e+01
1.038389375899999933e+01 0.000000000000000000e+00 0.000000000000000000e+00 -2.684208999999999901e-02 1.041607598899999942e+01 0.000000000000000000e+00 -2.761191299999999835e-02 1.822109900000000102e-02 1.083334996299999986e+01
1.027304767400000074e+01 0.000000000000000000e+00 0.000000000000000000e+00 -2.655556599999999920e-02 1.030488631699999935e+01 0.000000000000000000e+00 -2.731713900000000070e-02 1.802661800000000120e-02 1.071770591299999964e+01
1.016279783499999922e+01 0.000000000000000000e+00 0.000000000000000000e+00 -2.627056300000000025e-02 1.019429483400000080e+01 0.000000000000000000e+00 -2.702399499999999857e-02 1.783313200000000154e-02 1.060268412900000001e+01
1.036137727999999925e+01 0.000000000000000000e+00 0.000000000000000000e+00 -2.678389600000000148e-02 1.039348967799999990e+01 0.000000000000000000e+00 -2.755201700000000156e-02 1.818161399999999872e-02 1.080985877500000036e+01
1.021762565200000061e+01 0.000000000000000000e+00 0.000000000000000000e+00 -2.641229100000000093e-02 1.024929257600000021e+01 0.000000000000000000e+00 -2.716978800000000027e-02 1.792934100000000142e-02 1.065988511099999947e+01
1.014232877599999938e+01 0.000000000000000000e+00 0.000000000000000000e+00 2.380390699999999915e-02 1.020944883299999972e+01 0.000000000000000000e+00 -5.201953999999999953e-03 4.365123299999999762e-02 1.057552112700000002e+01
1.028698528800000034e+01 0.000000000000000000e+00 0.000000000000000000e+00 -2.659159399999999965e-02 1.031886712700000075e+01 0.000000000000000000e+00 -2.735420100000000160e-02 1.805107499999999976e-02 1.073224680300000067e+01
1.035154332199999949e+01 0.000000000000000000e+00 0.000000000000000000e+00 -2.675847500000000032e-02 1.038362524200000081e+01 0.000000000000000000e+00 -2.752586799999999848e-02 1.816435799999999851e-02 1.079959916500000006e+01
1.028048949299999926e+01 0.000000000000000000e+00 0.000000000000000000e+00 2.412816799999999845e-02 1.034852387199999946e+01 0.000000000000000000e+00 -5.272815999999999614e-03 4.424585799999999902e-02 1.071958287200000015e+01
1.040380941799999981e+01 0.000000000000000000e+00 0.000000000000000000e+00 2.441759799999999869e-02 1.047265990500000044e+01 0.000000000000000000e+00 -5.336066000000000420e-03 4.477661100000000088e-02 1.084816995499999948e+01
1.027573616899999998e+01 0.000000000000000000e+00 0.000000000000000000e+00 2.411701200000000017e-02 1.034373909199999986e+01 0.000000000000000000e+00 -5.270378000000000042e-03 4.422540099999999752e-02 1.071462652800000015e+01
1.039337153099999966e+01 0.000000000000000000e+00 0.000000000000000000e+00 -2.686660000000000090e-02 1.042558308699999969e+01 0.000000000000000000e+00 -2.763709300000000146e-02 1.823775600000000080e-02 1.084323786500000075e+01
1.016063218300000059e+01 0.000000000000000000e+00 0.000000000000000000e+00 -2.626496500000000123e-02 1.019212247099999935e+01 0.000000000000000000e+00 -2.701823600000000103e-02 1.782933199999999982e-02 1.060042473899999926e+01
1.014127519500000041e+01 0.000000000000000000e+00 0.000000000000000000e+00 -2.621493800000000013e-02 1.017270544299999990e+01 0.000000000000000000e+00 -2.696674199999999841e-02 1.779539000000000121e-02 1.058022979899999960e+01
1.039297383100000083e+01 0.000000000000000000e+00 0.000000000000000000e+00 2.439216699999999932e-02 1.046175260999999956e+01 0.000000000000000000e+00 -5.330508000000000295e-03 4.472997599999999768e-02 1.083687156499999915e+01
1.024730232199999946e+01 0.000000000000000000e+00 0.000000000000000000e+00 2.405027800000000132e-02 1.031511707399999977e+01 0.000000000000000000e+00 -5.255794000000000264e-03 4.410302499999999709e-02 1.068497823300000071e+01
1.026502128099999922e+01 0.000000000000000000e+00 0.000000000000000000e+00 -2.653481800000000168e-02 1.029683504900000024e+01 0.000000000000000000e+00 -2.729579600000000064e-02 1.801253400000000018e-02 1.070933210699999982e+01
1.031711985299999945e+01 0.000000000000000000e+00 0.000000000000000000e+00 2.421413899999999911e-02 1.038539664500000015e+01 0.000000000000000000e+00 -5.291602999999999758e-03 4.440351000000000020e-02 1.075777776299999999e+01
1.019617222499999976e+01 0.000000000000000000e+00 0.000000000000000000e+00 -2.635684500000000027e-02 1.022777261300000085e+01 0.000000000000000000e+00 -2.711271900000000040e-02 1.789172099999999932e-02 1.063750299099999985e+01
1.032065281100000043e+01 0.000000000000000000e+00 0.000000000000000000e+00 -2.667862400000000148e-02 1.035263899399999943e+01 0.000000000000000000e+00 -2.744372600000000162e-02 1.811015300000000036e-02 1.076737158999999977e+01
1.022979919199999976e+01 0.000000000000000000e+00 0.000000000000000000e+00 -2.644376000000000018e-02 1.026150384500000001e+01 0.000000000000000000e+00 -2.720215900000000006e-02 1.795070199999999894e-02 1.067258557100000083e+01
1.041032054999999978e+01 0.000000000000000000e+00 0.000000000000000000e+00 -2.691041300000000108e-02 1.044258463499999934e+01 0.000000000000000000e+00 -2.768216299999999921e-02 1.826749700000000060e-02 1.086092050399999920e+01
1.033934884600000004e+01 0.000000000000000000e+00 0.000000000000000000e+00 -2.672694299999999953e-02 1.037139302099999938e+01 0.000000000000000000e+00 -2.749346299999999924e-02 1.814293399999999945e-02 1.078687696999999979e+01
1.031287420900000029e+01 0.000000000000000000e+00 0.000000000000000000e+00 2.420417399999999844e-02 1.038112290399999971e+01 0.000000000000000000e+00 -5.289425999999999850e-03 4.438523800000000047e-02 1.075335078200000005e+01
1.028246041200000072e+01 0.000000000000000000e+00 0.000000000000000000e+00 2.413279399999999908e-02 1.035050783400000007e+01 0.000000000000000000e+00 -5.273827000000000029e-03 4.425434100000000259e-02 1.072163797199999991e+01
1.018915870000000012e+01 0.000000000000000000e+00 0.000000000000000000e+00 -2.633870500000000045e-02 1.022073739800000070e+01 0.000000000000000000e+00 -2.709409100000000070e-02 1.787938899999999900e-02 1.063018599699999989e+01
1.033291741799999919e+01 0.000000000000000000e+00 0.000000000000000000e+00 -2.671032799999999846e-02 1.036494161200000086e+01 0.000000000000000000e+00 -2.747633899999999893e-02 1.813167400000000040e-02 1.078016705699999989e+01
1.021012854499999989e+01 0.000000000000000000e+00 0.000000000000000000e+00 2.396303199999999869e-02 1.027769728900000068e+01 0.000000000000000000e+00 -5.236728000000000390e-03 4.394303399999999887e-02 1.064621671499999955e+01
1.031802857099999926e+01 0.000000000000000000e+00 0.000000000000000000e+00 -2.667184100000000169e-02 1.035000662100000035e+01 0.000000000000000000e+00 -2.743674800000000039e-02 1.810554799999999909e-02 1.076463376200000077e+01
1.035337039799999914e+01 0.000000000000000000e+00 0.000000000000000000e+00 -2.676319799999999846e-02 1.038545797999999998e+01 0.000000000000000000e+00 -2.753072599999999842e-02 1.816756400000000063e-02 1.080150532300000066e+01
1.032297910700000010e+01 0.000000000000000000e+00 0.000000000000000000e+00 -2.668462699999999896e-02 1.035497254799999922e+01 0.000000000000000000e+00 -2.744993399999999875e-02 1.811420999999999865e-02 1.076979868299999943e+01
1.030265091200000072e+01 0.000000000000000000e+00 0.000000000000000000e+00 -2.663209000000000062e-02 1.033458130200000014e+01 0.000000000000000000e+00 -2.739585699999999915e-02 1.807856399999999836e-02 1.074859049700000035e+01
1.034284841100000030e+01 0.000000000000000000e+00 0.000000000000000000e+00 -2.673599899999999988e-02 1.037490338399999956e+01 0.000000000000000000e+00 -2.750274700000000100e-02 1.814910100000000082e-02 1.079052790399999928e+01
1.038221315200000028e+01 0.000000000000000000e+00 0.000000000000000000e+00 -2.683774599999999913e-02 1.041439017299999925e+01 0.000000000000000000e+00 -2.760744399999999835e-02 1.821814999999999893e-02 1.083159661300000032e+01
1.040876547999999957e+01 0.000000000000000000e+00 0.000000000000000000e+00 -2.690639300000000067e-02 1.044102474600000008e+01 0.000000000000000000e+00 -2.767802700000000088e-02 1.826476900000000014e-02 1.085929812500000047e+01
1.030382086500000050e+01 0.000000000000000000e+00 0.000000000000000000e+00 2.418292600000000042e-02 1.037200964600000042e+01 0.000000000000000000e+00 -5.284782000000000021e-03 4.434627299999999855e-02 1.074391075700000009e+01
1.034686976399999914e+01 0.000000000000000000e+00 0.000000000000000000e+00 2.428396099999999974e-02 1.041534343500000048e+01 0.000000000000000000e+00 -5.306861999999999864e-03 4.453155000000000308e-02 1.078879833200000071e+01
1.017631221499999938e+01 0.000000000000000000e+00 0.000000000000000000e+00 -2.630550699999999881e-02 1.020785105200000054e+01 0.000000000000000000e+00 -2.705990900000000005e-02 1.785687099999999986e-02 1.061678335999999945e+01
1.028127365499999968e+01 0.000000000000000000e+00 0.000000000000000000e+00 2.413000800000000140e-02 1.034931322299999934e+01 0.000000000000000000e+00 -5.273217999999999656e-03 4.424923299999999893e-02 1.072040052600000060e+01
1.017400161599999997e+01 0.000000000000000000e+00 0.000000000000000000e+00 -2.629953499999999889e-02 1.020553329200000015e+01 0.000000000000000000e+00 -2.705376500000000045e-02 1.785281699999999999e-02 1.061437274999999936e+01
1.041079382899999928e+01 0.000000000000000000e+00 0.000000000000000000e+00 -2.691162600000000099e-02 1.044305942899999984e+01 0.000000000000000000e+00 -2.768344299999999855e-02 1.826830200000000015e-02 1.086141437500000073e+01
1.026606770100000077e+01 0.000000000000000000e+00 0.000000000000000000e+00 -2.653751299999999869e-02 1.029788475900000044e+01 0.000000000000000000e+00 -2.729860099999999873e-02 1.801434400000000158e-02 1.071042392500000062e+01
