-9.191401337700000340e+02
-9.219269059499999912e+02
-9.188892840500000148e+02
-9.183702753899999607e+02
-9.206474282499999617e+02
-9.187282982200000561e+02
-9.211403664399999798e+02
-9.186352002300000095e+02
-9.242354054200000064e+02
-9.167806328200000507e+02
-9.137846403900000496e+02
-9.162791341900000361e+02
-9.190233160599999565e+02
-9.184841245999999728e+02
-9.179123634100000118e+02
-9.231643859399999883e+02
-9.202038032200000544e+02
-9.231558332600000085e+02
-9.232049711299999899e+02
-9.236216337199999771e+02
-9.185235539400000562e+02
-9.222001316099999713e+02
-9.189870351600000049e+02
-9.197988933100000395e+02
-9.196872658199999933e+02
-9.223319645100000344e+02
-9.246797673600000280e+02
-9.232218573699999524e+02
-9.198172910199999706e+02
-9.235512924700000212e+02
-9.195891261000000441e+02
-9.238978585600000315e+02
-9.193333035399999744e+02
-9.215588564099999758e+02
-9.165425361699999485e+02
-9.187262874399999646e+02
-9.164998967999999877e+02
-9.187535297499999842e+02
-9.242832239599999866e+02
-9.201823713400000315e+02
-9.187455946400000357e+02
-9.196525521999999455e+02
-9.189499319899999819e+02
-9.193552022000000079e+02
-9.195477065999999695e+02
-9.230126142300000538e+02
-9.231395473600000514e+02
-9.181281571299999769e+02
-9.205864515700000084e+02
-9.185586762799999860e+02
