1.004811896700000062e+01 0.000000000000000000e+00 0.000000000000000000e+00 -2.327633800000000058e-02 1.044743225000000031e+01 0.000000000000000000e+00 2.086686800000000022e-02 -2.176890100000000022e-02 1.001930092999999999e+01
1.036923697299999958e+01 0.000000000000000000e+00 0.000000000000000000e+00 -2.402020300000000039e-02 1.078131151900000084e+01 0.000000000000000000e+00 2.153373199999999987e-02 -2.246459199999999851e-02 1.033949796799999987e+01
1.012585408500000028e+01 0.000000000000000000e+00 0.000000000000000000e+00 -2.345641000000000045e-02 1.052825656999999993e+01 0.000000000000000000e+00 2.102829999999999977e-02 -2.193731200000000048e-02 1.009681310300000057e+01
1.015284688300000049e+01 0.000000000000000000e+00 0.000000000000000000e+00 2.355308899999999928e-02 1.055626425200000007e+01 0.000000000000000000e+00 2.110690299999999978e-02 2.189512399999999845e-02 1.012374452999999974e+01
1.048864560800000056e+01 0.000000000000000000e+00 0.000000000000000000e+00 2.433209199999999961e-02 1.090540574000000085e+01 0.000000000000000000e+00 2.180500000000000146e-02 2.261929099999999970e-02 1.045858071400000000e+01
1.040638119099999948e+01 0.000000000000000000e+00 0.000000000000000000e+00 -2.410624800000000026e-02 1.081993185199999985e+01 0.000000000000000000e+00 2.161086900000000130e-02 -2.254506400000000008e-02 1.037653565599999972e+01
1.019343500199999930e+01 0.000000000000000000e+00 0.000000000000000000e+00 -2.361295999999999881e-02 1.059852315900000086e+01 0.000000000000000000e+00 2.116864499999999982e-02 -2.208372299999999955e-02 1.016420019699999955e+01
1.011281197699999979e+01 0.000000000000000000e+00 0.000000000000000000e+00 -2.342619799999999877e-02 1.051469616700000032e+01 0.000000000000000000e+00 2.100121500000000016e-02 -2.190905599999999967e-02 1.008380840000000056e+01
1.039488967600000002e+01 0.000000000000000000e+00 0.000000000000000000e+00 2.411459300000000014e-02 1.080792447199999984e+01 0.000000000000000000e+00 2.161008899999999899e-02 2.241710099999999831e-02 1.036509352600000078e+01
1.033163817600000023e+01 0.000000000000000000e+00 0.000000000000000000e+00 2.396785900000000108e-02 1.074215971099999933e+01 0.000000000000000000e+00 2.147859499999999963e-02 2.228069599999999914e-02 1.030202333099999912e+01
1.041932276300000026e+01 0.000000000000000000e+00 0.000000000000000000e+00 -2.413622699999999968e-02 1.083338772299999953e+01 0.000000000000000000e+00 2.163774400000000042e-02 -2.257310100000000166e-02 1.038944011200000084e+01
1.053186702500000038e+01 0.000000000000000000e+00 0.000000000000000000e+00 -2.439693399999999859e-02 1.095040450499999984e+01 0.000000000000000000e+00 2.187146400000000018e-02 -2.281692499999999832e-02 1.050166159599999993e+01
1.017630246499999913e+01 0.000000000000000000e+00 0.000000000000000000e+00 2.360750299999999843e-02 1.058065182700000051e+01 0.000000000000000000e+00 2.115566500000000058e-02 2.194570699999999833e-02 1.014713287800000074e+01
1.016232817999999938e+01 0.000000000000000000e+00 0.000000000000000000e+00 -2.354090199999999897e-02 1.056618014899999913e+01 0.000000000000000000e+00 2.110404499999999836e-02 -2.201633100000000010e-02 1.013318259000000054e+01
1.012513180000000013e+01 0.000000000000000000e+00 0.000000000000000000e+00 -2.345473699999999981e-02 1.052750558099999978e+01 0.000000000000000000e+00 2.102679999999999827e-02 -2.193574699999999850e-02 1.009609288899999946e+01
1.042206001399999948e+01 0.000000000000000000e+00 0.000000000000000000e+00 2.417762400000000172e-02 1.083617440699999968e+01 0.000000000000000000e+00 2.166657400000000094e-02 2.247569599999999987e-02 1.039218598200000088e+01
1.041273988200000034e+01 0.000000000000000000e+00 0.000000000000000000e+00 -2.412097699999999831e-02 1.082654323699999921e+01 0.000000000000000000e+00 2.162407400000000007e-02 -2.255884000000000014e-02 1.038287610999999977e+01
1.038177972499999946e+01 0.000000000000000000e+00 0.000000000000000000e+00 2.408417900000000070e-02 1.079429360399999993e+01 0.000000000000000000e+00 2.158283500000000160e-02 2.238882899999999898e-02 1.035202115300000081e+01
1.047412600900000079e+01 0.000000000000000000e+00 0.000000000000000000e+00 -2.426317799999999983e-02 1.089036885500000018e+01 0.000000000000000000e+00 2.175155399999999933e-02 -2.269183099999999911e-02 1.044408618099999941e+01
1.034482892299999968e+01 0.000000000000000000e+00 0.000000000000000000e+00 -2.396366299999999963e-02 1.075593349000000032e+01 0.000000000000000000e+00 2.148304399999999975e-02 -2.241171299999999977e-02 1.031515991999999926e+01
1.029859048099999974e+01 0.000000000000000000e+00 0.000000000000000000e+00 2.389119300000000154e-02 1.070779888500000077e+01 0.000000000000000000e+00 2.140989100000000034e-02 2.220942700000000034e-02 1.026907036499999926e+01
1.034983435300000032e+01 0.000000000000000000e+00 0.000000000000000000e+00 -2.397525799999999929e-02 1.076113783699999971e+01 0.000000000000000000e+00 2.149343800000000013e-02 -2.242255699999999921e-02 1.032015099500000055e+01
1.045344943799999982e+01 0.000000000000000000e+00 0.000000000000000000e+00 2.425044200000000053e-02 1.086881107099999966e+01 0.000000000000000000e+00 2.173183000000000059e-02 2.254338900000000048e-02 1.042348542999999950e+01
1.038988820800000035e+01 0.000000000000000000e+00 0.000000000000000000e+00 -2.406804200000000130e-02 1.080278343600000035e+01 0.000000000000000000e+00 2.157661799999999880e-02 -2.250933199999999995e-02 1.036008997499999928e+01
1.009325765600000047e+01 0.000000000000000000e+00 0.000000000000000000e+00 -2.338090099999999907e-02 1.049436475499999943e+01 0.000000000000000000e+00 2.096060699999999916e-02 -2.186669299999999955e-02 1.006431016099999987e+01
1.016834603999999942e+01 0.000000000000000000e+00 0.000000000000000000e+00 -2.355484199999999945e-02 1.057243715899999970e+01 0.000000000000000000e+00 2.111654300000000151e-02 -2.202936900000000003e-02 1.013918319100000076e+01
1.015910987700000057e+01 0.000000000000000000e+00 0.000000000000000000e+00 2.356761900000000146e-02 1.056277610200000083e+01 0.000000000000000000e+00 2.111992299999999878e-02 2.190862999999999838e-02 1.012998957099999942e+01
1.037898271899999969e+01 0.000000000000000000e+00 0.000000000000000000e+00 -2.404277900000000023e-02 1.079144456100000049e+01 0.000000000000000000e+00 2.155397100000000163e-02 -2.248570600000000114e-02 1.034921576300000012e+01
1.002903416999999919e+01 0.000000000000000000e+00 0.000000000000000000e+00 2.326586199999999827e-02 1.042753191299999926e+01 0.000000000000000000e+00 2.084950699999999976e-02 2.162811599999999931e-02 1.000028671599999974e+01
1.038604740499999934e+01 0.000000000000000000e+00 0.000000000000000000e+00 2.409408000000000036e-02 1.079873085900000085e+01 0.000000000000000000e+00 2.159170700000000165e-02 2.239803300000000122e-02 1.035627660099999936e+01
1.040446147499999974e+01 0.000000000000000000e+00 0.000000000000000000e+00 2.413679800000000097e-02 1.081787659999999995e+01 0.000000000000000000e+00 2.162998799999999930e-02 2.243774399999999905e-02 1.037463788800000053e+01
1.005532127500000072e+01 0.000000000000000000e+00 0.000000000000000000e+00 2.332684499999999883e-02 1.045486352100000005e+01 0.000000000000000000e+00 2.090415500000000065e-02 2.168480500000000144e-02 1.002649847100000002e+01
1.039083626000000038e+01 0.000000000000000000e+00 0.000000000000000000e+00 -2.407023800000000074e-02 1.080376916300000012e+01 0.000000000000000000e+00 2.157858699999999977e-02 -2.251138600000000128e-02 1.036103530799999994e+01
1.046820249399999980e+01 0.000000000000000000e+00 0.000000000000000000e+00 2.428466699999999936e-02 1.088415033100000073e+01 0.000000000000000000e+00 2.176250000000000059e-02 2.257520400000000149e-02 1.043819619799999998e+01
1.033229060899999929e+01 0.000000000000000000e+00 0.000000000000000000e+00 -2.393461800000000125e-02 1.074289690300000011e+01 0.000000000000000000e+00 2.145700500000000122e-02 -2.238454900000000011e-02 1.030265756600000060e+01
1.031488900399999942e+01 0.000000000000000000e+00 0.000000000000000000e+00 -2.389430700000000005e-02 1.072480375600000002e+01 0.000000000000000000e+00 2.142086799999999916e-02 -2.234684899999999849e-02 1.028530586900000010e+01
1.023707164100000000e+01 0.000000000000000000e+00 0.000000000000000000e+00 -2.371404400000000010e-02 1.064389392300000026e+01 0.000000000000000000e+00 2.125926499999999941e-02 -2.217826100000000120e-02 1.020771168599999967e+01
1.039218741800000068e+01 0.000000000000000000e+00 0.000000000000000000e+00 -2.407336800000000124e-02 1.080517401700000057e+01 0.000000000000000000e+00 2.158139300000000080e-02 -2.251431400000000055e-02 1.036238259099999937e+01
1.015645476399999936e+01 0.000000000000000000e+00 0.000000000000000000e+00 2.356145899999999987e-02 1.056001548899999953e+01 0.000000000000000000e+00 2.111440300000000034e-02 2.190290500000000029e-02 1.012734206800000081e+01
1.017752479099999974e+01 0.000000000000000000e+00 0.000000000000000000e+00 -2.357610499999999998e-02 1.058198067400000042e+01 0.000000000000000000e+00 2.113560399999999881e-02 -2.204925400000000077e-02 1.014833561700000075e+01
1.034911078400000051e+01 0.000000000000000000e+00 0.000000000000000000e+00 -2.397358100000000075e-02 1.076038551199999915e+01 0.000000000000000000e+00 2.149193599999999968e-02 -2.242098899999999881e-02 1.031942950000000003e+01
1.013231869300000021e+01 0.000000000000000000e+00 0.000000000000000000e+00 2.350546699999999864e-02 1.053492038599999958e+01 0.000000000000000000e+00 2.106422599999999840e-02 2.185085399999999942e-02 1.010327518200000085e+01
1.042294644200000064e+01 0.000000000000000000e+00 0.000000000000000000e+00 2.417967999999999854e-02 1.083709605700000012e+01 0.000000000000000000e+00 2.166841699999999885e-02 2.247760700000000014e-02 1.039306986899999963e+01
1.005769891399999949e+01 0.000000000000000000e+00 0.000000000000000000e+00 -2.329853000000000132e-02 1.045739290500000074e+01 0.000000000000000000e+00 2.088676199999999969e-02 -2.178965600000000100e-02 1.002885340099999922e+01
1.029892594800000083e+01 0.000000000000000000e+00 0.000000000000000000e+00 -2.385732900000000004e-02 1.070820632600000089e+01 0.000000000000000000e+00 2.138771700000000053e-02 -2.231226600000000074e-02 1.026938859500000056e+01
1.027263252899999912e+01 0.000000000000000000e+00 0.000000000000000000e+00 -2.379642100000000163e-02 1.068086800400000058e+01 0.000000000000000000e+00 2.133311400000000024e-02 -2.225530200000000111e-02 1.024317058499999966e+01
1.015278236400000011e+01 0.000000000000000000e+00 0.000000000000000000e+00 2.355294000000000137e-02 1.055619716900000071e+01 0.000000000000000000e+00 2.110676900000000092e-02 2.189498499999999875e-02 1.012368019500000038e+01
1.037419335799999942e+01 0.000000000000000000e+00 0.000000000000000000e+00 -2.403168500000000055e-02 1.078646486999999965e+01 0.000000000000000000e+00 2.154402500000000137e-02 -2.247533000000000170e-02 1.034444013699999942e+01
1.035619383799999937e+01 0.000000000000000000e+00 0.000000000000000000e+00 2.402482400000000018e-02 1.076769107700000028e+01 0.000000000000000000e+00 2.152964400000000056e-02 2.233365199999999898e-02 1.032650860600000087e+01
1.048804919700000049e+01 0.000000000000000000e+00 0.000000000000000000e+00 2.433070899999999898e-02 1.090478563099999931e+01 0.000000000000000000e+00 2.180375999999999842e-02 2.261800500000000005e-02 1.045798601199999922e+01
1.036797120299999975e+01 0.000000000000000000e+00 0.000000000000000000e+00 -2.401727099999999976e-02 1.077999544699999923e+01 0.000000000000000000e+00 2.153110299999999935e-02 -2.246184999999999848e-02 1.033823582800000018e+01
1.012648222600000025e+01 0.000000000000000000e+00 0.000000000000000000e+00 2.349192699999999925e-02 1.052885200999999959e+01 0.000000000000000000e+00 2.105209300000000089e-02 2.183826700000000148e-02 1.009745544499999959e+01
1.042391043099999948e+01 0.000000000000000000e+00 0.000000000000000000e+00 2.418191600000000122e-02 1.083809834999999921e+01 0.000000000000000000e+00 2.167042099999999874e-02 2.247968599999999872e-02 1.039403109500000078e+01
1.011316202299999922e+01 0.000000000000000000e+00 0.000000000000000000e+00 -2.342700899999999864e-02 1.051506012299999959e+01 0.000000000000000000e+00 2.100194199999999914e-02 -2.190981499999999915e-02 1.008415744100000033e+01
1.044676630999999922e+01 0.000000000000000000e+00 0.000000000000000000e+00 2.423493900000000048e-02 1.086186239299999912e+01 0.000000000000000000e+00 2.171793600000000019e-02 2.252897599999999917e-02 1.041682145899999945e+01
1.039809697899999996e+01 0.000000000000000000e+00 0.000000000000000000e+00 2.412203300000000106e-02 1.081125921499999976e+01 0.000000000000000000e+00 2.161675700000000033e-02 2.242401800000000042e-02 1.036829163600000037e+01
1.014387919600000032e+01 0.000000000000000000e+00 0.000000000000000000e+00 -2.349816500000000141e-02 1.054699800000000032e+01 0.000000000000000000e+00 2.106573200000000021e-02 -2.197636199999999929e-02 1.011478651700000064e+01
1.010712230200000050e+01 0.000000000000000000e+00 0.000000000000000000e+00 -2.341301800000000072e-02 1.050878038299999950e+01 0.000000000000000000e+00 2.098939999999999834e-02 -2.189672999999999967e-02 1.007813504199999954e+01
1.055338090599999923e+01 0.000000000000000000e+00 0.000000000000000000e+00 -2.444677099999999909e-02 1.097277335000000065e+01 0.000000000000000000e+00 2.191614199999999957e-02 -2.286353400000000133e-02 1.052311377500000056e+01
1.048345868800000069e+01 0.000000000000000000e+00 0.000000000000000000e+00 2.432005900000000151e-02 1.090001272099999952e+01 0.000000000000000000e+00 2.179421600000000167e-02 2.260810499999999987e-02 1.045340866099999921e+01
1.028267435899999960e+01 0.000000000000000000e+00 0.000000000000000000e+00 2.385427000000000033e-02 1.069125034500000027e+01 0.000000000000000000e+00 2.137680299999999978e-02 2.217510300000000156e-02 1.025319986499999914e+01
1.049255864999999943e+01 0.000000000000000000e+00 0.000000000000000000e+00 -2.430587700000000004e-02 1.090953401099999986e+01 0.000000000000000000e+00 2.178983300000000151e-02 -2.273176400000000152e-02 1.046246595699999915e+01
1.042449226799999984e+01 0.000000000000000000e+00 0.000000000000000000e+00 -2.414820200000000056e-02 1.083876266400000077e+01 0.000000000000000000e+00 2.164848000000000119e-02 -2.258430100000000107e-02 1.039459478999999931e+01
1.018010552600000018e+01 0.000000000000000000e+00 0.000000000000000000e+00 2.361632500000000051e-02 1.058460600000000085e+01 0.000000000000000000e+00 2.116357099999999908e-02 2.195390900000000062e-02 1.015092503800000046e+01
1.011418165699999960e+01 0.000000000000000000e+00 0.000000000000000000e+00 2.346339199999999958e-02 1.051606268499999963e+01 0.000000000000000000e+00 2.102652099999999941e-02 2.181174099999999907e-02 1.008519013399999942e+01
1.030512682500000032e+01 0.000000000000000000e+00 0.000000000000000000e+00 -2.387169299999999938e-02 1.071465362700000057e+01 0.000000000000000000e+00 2.140059399999999848e-02 -2.232570000000000041e-02 1.027557168799999943e+01
1.035016961600000052e+01 0.000000000000000000e+00 0.000000000000000000e+00 2.401084900000000077e-02 1.076142748600000054e+01 0.000000000000000000e+00 2.151712000000000069e-02 2.232065999999999911e-02 1.032050165200000080e+01
1.029658401500000053e+01 0.000000000000000000e+00 0.000000000000000000e+00 -2.385190400000000016e-02 1.070577132400000053e+01 0.000000000000000000e+00 2.138285399999999975e-02 -2.230719199999999999e-02 1.026705337799999995e+01
1.029763001100000075e+01 0.000000000000000000e+00 0.000000000000000000e+00 -2.385432700000000156e-02 1.070685888799999930e+01 0.000000000000000000e+00 2.138502600000000142e-02 -2.230945800000000076e-02 1.026809637500000072e+01
1.014481184799999980e+01 0.000000000000000000e+00 0.000000000000000000e+00 2.353444899999999895e-02 1.054790994899999923e+01 0.000000000000000000e+00 2.109019900000000045e-02 2.187779600000000144e-02 1.011573252700000047e+01
1.041392625900000013e+01 0.000000000000000000e+00 0.000000000000000000e+00 2.415875500000000051e-02 1.082771746200000074e+01 0.000000000000000000e+00 2.164966399999999902e-02 2.245815500000000048e-02 1.038407554099999963e+01
1.040665546199999980e+01 0.000000000000000000e+00 0.000000000000000000e+00 -2.410688299999999909e-02 1.082021702199999957e+01 0.000000000000000000e+00 2.161143800000000018e-02 -2.254565799999999967e-02 1.037680914000000065e+01
1.013931124299999986e+01 0.000000000000000000e+00 0.000000000000000000e+00 -2.348758299999999938e-02 1.054224851700000087e+01 0.000000000000000000e+00 2.105624600000000068e-02 -2.196646600000000046e-02 1.011023166600000067e+01
1.030896158200000023e+01 0.000000000000000000e+00 0.000000000000000000e+00 -2.388057600000000058e-02 1.071864077699999918e+01 0.000000000000000000e+00 2.140855800000000114e-02 -2.233400799999999894e-02 1.027939544600000055e+01
1.041048790700000026e+01 0.000000000000000000e+00 0.000000000000000000e+00 2.415077800000000122e-02 1.082414248899999976e+01 0.000000000000000000e+00 2.164251600000000053e-02 2.245074000000000028e-02 1.038064704599999999e+01
1.033972722000000033e+01 0.000000000000000000e+00 0.000000000000000000e+00 -2.395184499999999939e-02 1.075062904500000016e+01 0.000000000000000000e+00 2.147244900000000109e-02 -2.240065999999999932e-02 1.031007284900000087e+01
1.015785710599999980e+01 0.000000000000000000e+00 0.000000000000000000e+00 -2.353054499999999993e-02 1.056153139399999930e+01 0.000000000000000000e+00 2.109476000000000059e-02 -2.200664499999999829e-02 1.012872433899999969e+01
1.034186778699999998e+01 0.000000000000000000e+00 0.000000000000000000e+00 -2.395680299999999874e-02 1.075285467900000036e+01 0.000000000000000000e+00 2.147689399999999985e-02 -2.240529800000000057e-02 1.031220727700000062e+01
1.026585181199999930e+01 0.000000000000000000e+00 0.000000000000000000e+00 2.381524399999999930e-02 1.067375936400000036e+01 0.000000000000000000e+00 2.134182999999999913e-02 2.213882500000000086e-02 1.023642553800000066e+01
1.035084522300000032e+01 0.000000000000000000e+00 0.000000000000000000e+00 2.401241600000000170e-02 1.076212993799999929e+01 0.000000000000000000e+00 2.151852400000000068e-02 2.232211699999999896e-02 1.032117532200000021e+01
1.039556406700000046e+01 0.000000000000000000e+00 0.000000000000000000e+00 2.411615699999999918e-02 1.080862565900000050e+01 0.000000000000000000e+00 2.161149100000000003e-02 2.241855599999999921e-02 1.036576598299999930e+01
1.040787558000000068e+01 0.000000000000000000e+00 0.000000000000000000e+00 -2.410970900000000000e-02 1.082148562699999950e+01 0.000000000000000000e+00 2.161397199999999866e-02 -2.254830099999999976e-02 1.037802575899999979e+01
1.015189447700000080e+01 0.000000000000000000e+00 0.000000000000000000e+00 -2.351673199999999853e-02 1.055533180900000012e+01 0.000000000000000000e+00 2.108237799999999884e-02 -2.199372700000000111e-02 1.012277880999999979e+01
1.037473583699999935e+01 0.000000000000000000e+00 0.000000000000000000e+00 -2.403294200000000158e-02 1.078702890799999992e+01 0.000000000000000000e+00 2.154515099999999850e-02 -2.247650500000000079e-02 1.034498106100000037e+01
1.035980905299999932e+01 0.000000000000000000e+00 0.000000000000000000e+00 -2.399836400000000119e-02 1.077150893199999970e+01 0.000000000000000000e+00 2.151415300000000114e-02 -2.244416700000000098e-02 1.033009708700000040e+01
1.018449896799999976e+01 0.000000000000000000e+00 0.000000000000000000e+00 -2.359226000000000031e-02 1.058923200599999959e+01 0.000000000000000000e+00 2.115008700000000144e-02 -2.206436399999999950e-02 1.015528979199999959e+01
1.039791751399999953e+01 0.000000000000000000e+00 0.000000000000000000e+00 2.412161700000000145e-02 1.081107261900000083e+01 0.000000000000000000e+00 2.161638399999999890e-02 2.242363099999999942e-02 1.036811268499999983e+01
1.042588882599999955e+01 0.000000000000000000e+00 0.000000000000000000e+00 -2.415143700000000129e-02 1.084021472200000069e+01 0.000000000000000000e+00 2.165138000000000132e-02 -2.258732600000000132e-02 1.039598734299999983e+01
1.031126058299999926e+01 0.000000000000000000e+00 0.000000000000000000e+00 2.392058600000000063e-02 1.072097242599999944e+01 0.000000000000000000e+00 2.143623100000000004e-02 2.223675099999999905e-02 1.028170414899999940e+01
1.015971295900000015e+01 0.000000000000000000e+00 0.000000000000000000e+00 2.356901800000000061e-02 1.056340314700000071e+01 0.000000000000000000e+00 2.112117700000000139e-02 2.190993100000000054e-02 1.013059092499999991e+01
1.034588074100000021e+01 0.000000000000000000e+00 0.000000000000000000e+00 -2.396609900000000112e-02 1.075702710700000075e+01 0.000000000000000000e+00 2.148522799999999858e-02 -2.241399200000000064e-02 1.031620872100000064e+01
1.030781252499999923e+01 0.000000000000000000e+00 0.000000000000000000e+00 -2.387791499999999956e-02 1.071744605700000008e+01 0.000000000000000000e+00 2.140617200000000109e-02 -2.233151800000000159e-02 1.027824968500000047e+01
1.051150910500000002e+01 0.000000000000000000e+00 0.000000000000000000e+00 -2.434977500000000059e-02 1.092923756000000068e+01 0.000000000000000000e+00 2.182918699999999990e-02 -2.277281999999999917e-02 1.048136206300000062e+01
1.030741668900000008e+01 0.000000000000000000e+00 0.000000000000000000e+00 2.391166800000000051e-02 1.071697579699999991e+01 0.000000000000000000e+00 2.142824000000000118e-02 2.222846200000000091e-02 1.027787127300000058e+01
1.018227919099999923e+01 0.000000000000000000e+00 0.000000000000000000e+00 2.362136800000000023e-02 1.058686603499999990e+01 0.000000000000000000e+00 2.116809000000000052e-02 2.195859600000000036e-02 1.015309247299999917e+01
1.015017954400000022e+01 0.000000000000000000e+00 0.000000000000000000e+00 2.354690200000000150e-02 1.055349092700000035e+01 0.000000000000000000e+00 2.110135800000000061e-02 2.188937200000000069e-02 1.012108483599999964e+01
1.022547252500000070e+01 0.000000000000000000e+00 0.000000000000000000e+00 2.372157000000000085e-02 1.063177563100000000e+01 0.000000000000000000e+00 2.125788500000000067e-02 2.205174500000000107e-02 1.019616199600000073e+01
1.017992924800000054e+01 0.000000000000000000e+00 0.000000000000000000e+00 2.361591600000000069e-02 1.058442271800000078e+01 0.000000000000000000e+00 2.116320500000000090e-02 2.195352899999999940e-02 1.015074926499999997e+01
1.034981143699999961e+01 0.000000000000000000e+00 0.000000000000000000e+00 -2.397520399999999996e-02 1.076111401000000001e+01 0.000000000000000000e+00 2.149339100000000058e-02 -2.242250700000000124e-02 1.032012814399999989e+01
1.020114727900000062e+01 0.000000000000000000e+00 0.000000000000000000e+00 2.366513900000000170e-02 1.060648383500000058e+01 0.000000000000000000e+00 2.120731500000000089e-02 2.199928599999999984e-02 1.017190647700000028e+01
