-9.286576258500000449e+02
-9.258527681000000484e+02
-9.380137112400000206e+02
-9.337480134400000225e+02
-9.488702550000000429e+02
-9.239910350000000108e+02
-9.305936822300000131e+02
-9.284382061899999599e+02
-9.315846961700000293e+02
-9.176426832099999729e+02
-9.474387290199999825e+02
-9.354306465600000138e+02
-9.215353028099999619e+02
-9.190232299399999647e+02
-9.216011593900000207e+02
-9.262907697399999734e+02
-9.532558595799999921e+02
-9.213609392099999695e+02
-9.524104017199999817e+02
-9.182687944499999730e+02
-9.425373459700000467e+02
-9.183990939599999592e+02
-9.453277631299999939e+02
-9.317869849999999587e+02
-9.230602374300000292e+02
-9.360023601599999665e+02
-9.581195185699999683e+02
-9.271608526600000459e+02
-9.518531745499999488e+02
-9.180531634400000485e+02
-9.355602060600000414e+02
-9.334191289799999822e+02
-9.364954525299999659e+02
-9.484864839199999551e+02
-9.582616982499999949e+02
-9.439173093900000140e+02
-9.229209813500000337e+02
-9.206274001699999872e+02
-9.259200869799999509e+02
-9.360653633800000080e+02
-9.274337406800000281e+02
-9.449979647300000352e+02
-9.265480375399999957e+02
-9.257717894099999967e+02
-9.360986933200000522e+02
-9.307307363400000213e+02
-9.339647803000000295e+02
-9.340605061500000375e+02
-9.329961777600000232e+02
-9.233856149499999901e+02
-9.400603444700000182e+02
-9.240031384100000196e+02
-9.224524087300000019e+02
-9.235997612999999546e+02
-9.278761369600000535e+02
-9.340890445100000079e+02
-9.489707683599999655e+02
-9.396084286100000327e+02
-9.411042224100000340e+02
-9.272634950100000424e+02
-9.581107806700000538e+02
-9.277334104799999750e+02
-9.256176385300000220e+02
-9.282559240099999442e+02
-9.450088531400000420e+02
-9.435075597100000095e+02
-9.280196543499999962e+02
-9.517664688099999921e+02
-9.319939608299999918e+02
-9.226258473499999582e+02
-9.538507007099999555e+02
-9.180436080499999889e+02
-9.325145375500000000e+02
-9.189946311999999580e+02
-9.447544693600000301e+02
-9.236844991000000391e+02
-9.242378369599999814e+02
-9.427357022400000233e+02
-9.371738453299999492e+02
-9.238015402199999926e+02
-9.213342283599999973e+02
-9.257214754499999572e+02
-9.265461478400000033e+02
-9.184752160699999877e+02
-9.269549613499999623e+02
-9.533772066999999879e+02
-9.535555613499999481e+02
-9.560887002900000198e+02
-9.378025104900000315e+02
-9.208856326699999499e+02
-9.380915423500000543e+02
-9.281516911999999593e+02
-9.466056891800000130e+02
-9.248005874100000483e+02
-9.221012290500000290e+02
-9.235127928900000143e+02
-9.201692296700000497e+02
-9.282593026399999872e+02
-9.337009618199999750e+02
-9.394029778300000544e+02
