1.034407130600000002e+01 0.000000000000000000e+00 0.000000000000000000e+00 2.966933000000000157e-03 1.044621426700000022e+01 0.000000000000000000e+00 3.802500000000000270e-05 -5.127981000000000206e-03 1.079698483800000020e+01
1.046072827100000069e+01 0.000000000000000000e+00 0.000000000000000000e+00 3.000393000000000070e-03 1.056402316600000013e+01 0.000000000000000000e+00 3.845299999999999928e-05 -5.185811999999999714e-03 1.091874961000000077e+01
1.056340977099999989e+01 0.000000000000000000e+00 0.000000000000000000e+00 3.029843999999999853e-03 1.066771860000000061e+01 0.000000000000000000e+00 3.883100000000000142e-05 -5.236715999999999767e-03 1.102592700399999970e+01
1.021517535699999968e+01 0.000000000000000000e+00 0.000000000000000000e+00 2.929961999999999931e-03 1.031604553000000024e+01 0.000000000000000000e+00 3.755100000000000012e-05 -5.064082000000000132e-03 1.066244520000000051e+01
1.041950540899999922e+01 0.000000000000000000e+00 0.000000000000000000e+00 2.988568999999999948e-03 1.052239324800000020e+01 0.000000000000000000e+00 3.830200000000000022e-05 -5.165376000000000169e-03 1.087572181200000010e+01
1.037809993199999958e+01 0.000000000000000000e+00 0.000000000000000000e+00 -1.678462999999999830e-02 1.049892640500000063e+01 0.000000000000000000e+00 -3.095717999999999907e-03 -1.899246200000000162e-02 1.083159395799999913e+01
1.082566482800000074e+01 0.000000000000000000e+00 0.000000000000000000e+00 -1.750848199999999882e-02 1.095170205099999983e+01 0.000000000000000000e+00 -3.229224000000000157e-03 -1.981152900000000133e-02 1.129871619200000055e+01
1.058726232499999931e+01 0.000000000000000000e+00 0.000000000000000000e+00 -1.712291100000000107e-02 1.071052395999999973e+01 0.000000000000000000e+00 -3.158109999999999997e-03 -1.937523999999999844e-02 1.104989616499999983e+01
1.046943163699999957e+01 0.000000000000000000e+00 0.000000000000000000e+00 3.002888999999999906e-03 1.057281247399999913e+01 0.000000000000000000e+00 3.848500000000000168e-05 -5.190127000000000108e-03 1.092783405099999960e+01
1.059768440500000075e+01 0.000000000000000000e+00 0.000000000000000000e+00 3.039674999999999929e-03 1.070233167900000026e+01 0.000000000000000000e+00 3.895699999999999988e-05 -5.253706999999999822e-03 1.106170234600000057e+01
1.004986288499999958e+01 0.000000000000000000e+00 0.000000000000000000e+00 -1.625376799999999830e-02 1.016686787499999944e+01 0.000000000000000000e+00 -2.997806999999999902e-03 -1.839177100000000120e-02 1.048901386700000060e+01
1.019526335199999956e+01 0.000000000000000000e+00 0.000000000000000000e+00 2.924251000000000107e-03 1.029593690399999950e+01 0.000000000000000000e+00 3.747800000000000269e-05 -5.054209999999999953e-03 1.064166135199999985e+01
1.021752594800000047e+01 0.000000000000000000e+00 0.000000000000000000e+00 -1.652493099999999965e-02 1.033648294700000037e+01 0.000000000000000000e+00 -3.047820000000000130e-03 -1.869860300000000114e-02 1.066400333900000064e+01
1.064484520100000076e+01 0.000000000000000000e+00 0.000000000000000000e+00 -1.721603999999999843e-02 1.076877724100000044e+01 0.000000000000000000e+00 -3.175285999999999820e-03 -1.948062000000000057e-02 1.110999525199999916e+01
1.043311152000000064e+01 0.000000000000000000e+00 0.000000000000000000e+00 2.992471999999999927e-03 1.053613371299999990e+01 0.000000000000000000e+00 3.835200000000000143e-05 -5.172122000000000351e-03 1.088992366399999945e+01
1.055722616299999927e+01 0.000000000000000000e+00 0.000000000000000000e+00 -1.707433300000000057e-02 1.068013810399999919e+01 0.000000000000000000e+00 -3.149149999999999866e-03 -1.932027199999999945e-02 1.101854750600000088e+01
1.028300716300000062e+01 0.000000000000000000e+00 0.000000000000000000e+00 -1.663083500000000006e-02 1.040272652400000020e+01 0.000000000000000000e+00 -3.067352000000000186e-03 -1.881843700000000036e-02 1.073234590100000041e+01
1.053364960300000064e+01 0.000000000000000000e+00 0.000000000000000000e+00 3.021307999999999893e-03 1.063766456299999952e+01 0.000000000000000000e+00 3.872199999999999958e-05 -5.221962000000000131e-03 1.099486379100000022e+01
1.037460051799999938e+01 0.000000000000000000e+00 0.000000000000000000e+00 2.975689000000000112e-03 1.047704494100000083e+01 0.000000000000000000e+00 3.813699999999999756e-05 -5.143115000000000187e-03 1.082885076600000041e+01
1.006536929900000032e+01 0.000000000000000000e+00 0.000000000000000000e+00 -1.627884699999999907e-02 1.018255482300000025e+01 0.000000000000000000e+00 -3.002432000000000191e-03 -1.842014900000000024e-02 1.050519786899999986e+01
1.054481378700000072e+01 0.000000000000000000e+00 0.000000000000000000e+00 3.024511000000000126e-03 1.064893898799999938e+01 0.000000000000000000e+00 3.876300000000000139e-05 -5.227497000000000220e-03 1.100651679699999974e+01
1.026643858999999992e+01 0.000000000000000000e+00 0.000000000000000000e+00 2.944665999999999863e-03 1.036781496500000088e+01 0.000000000000000000e+00 3.773899999999999900e-05 -5.089495000000000303e-03 1.071595298599999957e+01
1.039852480499999920e+01 0.000000000000000000e+00 0.000000000000000000e+00 -1.681766300000000006e-02 1.051958907400000065e+01 0.000000000000000000e+00 -3.101809999999999984e-03 -1.902984099999999873e-02 1.085291134200000052e+01
1.026288720099999985e+01 0.000000000000000000e+00 0.000000000000000000e+00 2.943647000000000191e-03 1.036422850699999998e+01 0.000000000000000000e+00 3.772599999999999760e-05 -5.087734000000000006e-03 1.071224609999999977e+01
1.047396089999999980e+01 0.000000000000000000e+00 0.000000000000000000e+00 3.004188000000000084e-03 1.057738646099999968e+01 0.000000000000000000e+00 3.850199999999999830e-05 -5.192371999999999786e-03 1.093256162700000012e+01
1.044018649999999937e+01 0.000000000000000000e+00 0.000000000000000000e+00 2.994501000000000107e-03 1.054327855500000055e+01 0.000000000000000000e+00 3.837799999999999746e-05 -5.175629000000000167e-03 1.089730842099999997e+01
1.040851737999999926e+01 0.000000000000000000e+00 0.000000000000000000e+00 -1.683382400000000070e-02 1.052969798600000040e+01 0.000000000000000000e+00 -3.104790999999999974e-03 -1.904812700000000150e-02 1.086334056399999959e+01
1.052309317299999947e+01 0.000000000000000000e+00 0.000000000000000000e+00 -1.701912900000000090e-02 1.064560772199999938e+01 0.000000000000000000e+00 -3.138967999999999793e-03 -1.925780699999999832e-02 1.098292299899999946e+01
1.056985033700000010e+01 0.000000000000000000e+00 0.000000000000000000e+00 3.031691999999999894e-03 1.067422276299999950e+01 0.000000000000000000e+00 3.885499999999999984e-05 -5.239909000000000060e-03 1.103264956800000007e+01
1.027280923200000018e+01 0.000000000000000000e+00 0.000000000000000000e+00 2.946493000000000115e-03 1.037424851299999951e+01 0.000000000000000000e+00 3.776299999999999742e-05 -5.092652999999999937e-03 1.072260256600000083e+01
1.040422891000000050e+01 0.000000000000000000e+00 0.000000000000000000e+00 -1.682688800000000165e-02 1.052535958900000068e+01 0.000000000000000000e+00 -3.103512000000000111e-03 -1.904027900000000023e-02 1.085886469999999981e+01
1.038042735199999989e+01 0.000000000000000000e+00 0.000000000000000000e+00 -1.678839400000000162e-02 1.050128092199999941e+01 0.000000000000000000e+00 -3.096412000000000209e-03 -1.899672100000000113e-02 1.083402307999999969e+01
1.052483080100000024e+01 0.000000000000000000e+00 0.000000000000000000e+00 -1.702193899999999982e-02 1.064736558100000074e+01 0.000000000000000000e+00 -3.139486999999999833e-03 -1.926098700000000025e-02 1.098473655799999982e+01
1.029919769800000040e+01 0.000000000000000000e+00 0.000000000000000000e+00 -1.665702000000000155e-02 1.041910555599999988e+01 0.000000000000000000e+00 -3.072182000000000125e-03 -1.884806699999999960e-02 1.074924391699999937e+01
1.048162434300000001e+01 0.000000000000000000e+00 0.000000000000000000e+00 -1.695206100000000091e-02 1.060365609299999967e+01 0.000000000000000000e+00 -3.126598999999999871e-03 -1.918191699999999972e-02 1.093964209700000012e+01
1.008912192999999924e+01 0.000000000000000000e+00 0.000000000000000000e+00 -1.631726199999999904e-02 1.020658399200000055e+01 0.000000000000000000e+00 -3.009518000000000089e-03 -1.846361700000000161e-02 1.052998842300000071e+01
1.033134521500000069e+01 0.000000000000000000e+00 0.000000000000000000e+00 2.963283000000000150e-03 1.043336251300000050e+01 0.000000000000000000e+00 3.797800000000000129e-05 -5.121671999999999857e-03 1.078370153800000075e+01
1.040593609599999958e+01 0.000000000000000000e+00 0.000000000000000000e+00 -1.682964899999999861e-02 1.052708664999999932e+01 0.000000000000000000e+00 -3.104021000000000211e-03 -1.904340399999999989e-02 1.086064648500000018e+01
1.051087122799999918e+01 0.000000000000000000e+00 0.000000000000000000e+00 3.014774999999999920e-03 1.061466126200000026e+01 0.000000000000000000e+00 3.863799999999999836e-05 -5.210669999999999712e-03 1.097108806800000025e+01
1.037210860299999915e+01 0.000000000000000000e+00 0.000000000000000000e+00 -1.677493999999999860e-02 1.049286532200000011e+01 0.000000000000000000e+00 -3.093930999999999851e-03 -1.898149799999999943e-02 1.082534082499999961e+01
1.052297813799999915e+01 0.000000000000000000e+00 0.000000000000000000e+00 3.018247999999999851e-03 1.062688772199999931e+01 0.000000000000000000e+00 3.868199999999999997e-05 -5.216672000000000323e-03 1.098372507700000078e+01
1.017588551599999924e+01 0.000000000000000000e+00 0.000000000000000000e+00 2.918692999999999982e-03 1.027636771999999965e+01 0.000000000000000000e+00 3.740600000000000066e-05 -5.044604000000000275e-03 1.062143505899999951e+01
1.026606731100000047e+01 0.000000000000000000e+00 0.000000000000000000e+00 2.944558999999999805e-03 1.036744001900000001e+01 0.000000000000000000e+00 3.773799999999999681e-05 -5.089311000000000008e-03 1.071556545099999980e+01
1.030268661100000038e+01 0.000000000000000000e+00 0.000000000000000000e+00 2.955062999999999961e-03 1.040442091699999949e+01 0.000000000000000000e+00 3.787300000000000144e-05 -5.107465000000000269e-03 1.075378812099999948e+01
1.017315397900000029e+01 0.000000000000000000e+00 0.000000000000000000e+00 2.917909000000000214e-03 1.027360921000000005e+01 0.000000000000000000e+00 3.739599999999999907e-05 -5.043249999999999990e-03 1.061858392299999920e+01
1.062774921499999969e+01 0.000000000000000000e+00 0.000000000000000000e+00 -1.718839100000000078e-02 1.075148221599999943e+01 0.000000000000000000e+00 -3.170187000000000092e-03 -1.944933299999999921e-02 1.109215221900000081e+01
1.059212908900000016e+01 0.000000000000000000e+00 0.000000000000000000e+00 3.038082000000000109e-03 1.069672150799999955e+01 0.000000000000000000e+00 3.893699999999999668e-05 -5.250953000000000044e-03 1.105590379200000051e+01
1.054103614699999980e+01 0.000000000000000000e+00 0.000000000000000000e+00 3.023426999999999972e-03 1.064512404599999940e+01 0.000000000000000000e+00 3.874899999999999780e-05 -5.225623999999999894e-03 1.100257375300000007e+01
1.015357388099999980e+01 0.000000000000000000e+00 0.000000000000000000e+00 -1.642150100000000154e-02 1.027178632200000052e+01 0.000000000000000000e+00 -3.028742999999999973e-03 -1.858156799999999970e-02 1.059725674499999926e+01
1.060292907800000073e+01 0.000000000000000000e+00 0.000000000000000000e+00 -1.714824900000000082e-02 1.072637311299999929e+01 0.000000000000000000e+00 -3.162783000000000174e-03 -1.940391099999999938e-02 1.106624751100000026e+01
1.047106039200000005e+01 0.000000000000000000e+00 0.000000000000000000e+00 3.003355999999999994e-03 1.057445731199999983e+01 0.000000000000000000e+00 3.849100000000000129e-05 -5.190934000000000346e-03 1.092953412099999966e+01
1.034404162599999921e+01 0.000000000000000000e+00 0.000000000000000000e+00 -1.672954700000000086e-02 1.046447157699999941e+01 0.000000000000000000e+00 -3.085558999999999871e-03 -1.893013299999999829e-02 1.079604739900000077e+01
1.090903715299999988e+01 0.000000000000000000e+00 0.000000000000000000e+00 3.128979000000000048e-03 1.101675889400000052e+01 0.000000000000000000e+00 4.010100000000000112e-05 -5.408056999999999968e-03 1.138668762600000051e+01
1.030069088900000018e+01 0.000000000000000000e+00 0.000000000000000000e+00 2.954490000000000154e-03 1.040240548899999951e+01 0.000000000000000000e+00 3.786499999999999746e-05 -5.106475000000000077e-03 1.075170501600000073e+01
1.053295376099999991e+01 0.000000000000000000e+00 0.000000000000000000e+00 -1.703507699999999916e-02 1.065558311200000041e+01 0.000000000000000000e+00 -3.141909999999999929e-03 -1.927585199999999957e-02 1.099321446799999968e+01
1.040103139200000015e+01 0.000000000000000000e+00 0.000000000000000000e+00 2.983270000000000106e-03 1.050373680899999940e+01 0.000000000000000000e+00 3.823400000000000019e-05 -5.156217999999999739e-03 1.085643891299999986e+01
1.049382896200000026e+01 0.000000000000000000e+00 0.000000000000000000e+00 -1.697179999999999869e-02 1.061600280400000074e+01 0.000000000000000000e+00 -3.130238999999999938e-03 -1.920425200000000152e-02 1.095238002500000007e+01
1.065935698999999914e+01 0.000000000000000000e+00 0.000000000000000000e+00 3.057363999999999915e-03 1.076461325300000027e+01 0.000000000000000000e+00 3.918400000000000295e-05 -5.284281000000000048e-03 1.112607525600000002e+01
1.037679100499999940e+01 0.000000000000000000e+00 0.000000000000000000e+00 2.976317000000000025e-03 1.047925705900000004e+01 0.000000000000000000e+00 3.814500000000000155e-05 -5.144201000000000155e-03 1.083113716399999937e+01
1.029228081900000014e+01 0.000000000000000000e+00 0.000000000000000000e+00 2.952077999999999907e-03 1.039391237299999915e+01 0.000000000000000000e+00 3.783399999999999724e-05 -5.102306000000000029e-03 1.074292671299999924e+01
1.032395156800000002e+01 0.000000000000000000e+00 0.000000000000000000e+00 2.961161999999999822e-03 1.042589585700000043e+01 0.000000000000000000e+00 3.795100000000000307e-05 -5.118005999999999597e-03 1.077598416100000023e+01
1.041896917200000061e+01 0.000000000000000000e+00 0.000000000000000000e+00 2.988414999999999908e-03 1.052185171500000038e+01 0.000000000000000000e+00 3.830000000000000261e-05 -5.165111000000000008e-03 1.087516209500000031e+01
1.031158989000000048e+01 0.000000000000000000e+00 0.000000000000000000e+00 -1.667706199999999944e-02 1.043164202400000029e+01 0.000000000000000000e+00 -3.075878000000000206e-03 -1.887074500000000127e-02 1.076217761300000042e+01
1.017636079799999926e+01 0.000000000000000000e+00 0.000000000000000000e+00 2.918828999999999955e-03 1.027684769500000073e+01 0.000000000000000000e+00 3.740799999999999827e-05 -5.044840000000000088e-03 1.062193115200000015e+01
1.037812192300000014e+01 0.000000000000000000e+00 0.000000000000000000e+00 2.976699000000000185e-03 1.048060111799999916e+01 0.000000000000000000e+00 3.814999999999999896e-05 -5.144860999999999705e-03 1.083252635600000069e+01
1.034535353300000082e+01 0.000000000000000000e+00 0.000000000000000000e+00 -1.673166900000000110e-02 1.046579875800000003e+01 0.000000000000000000e+00 -3.085950000000000065e-03 -1.893253400000000086e-02 1.079741663299999921e+01
1.026985628399999939e+01 0.000000000000000000e+00 0.000000000000000000e+00 -1.660956599999999922e-02 1.038942253599999965e+01 0.000000000000000000e+00 -3.063429999999999799e-03 -1.879437000000000121e-02 1.071862036499999959e+01
1.111777818400000051e+01 0.000000000000000000e+00 0.000000000000000000e+00 -1.798092000000000093e-02 1.124721632199999988e+01 0.000000000000000000e+00 -3.316359000000000060e-03 -2.034611199999999953e-02 1.160359408799999947e+01
1.062376636499999982e+01 0.000000000000000000e+00 0.000000000000000000e+00 3.047156000000000083e-03 1.072867118699999978e+01 0.000000000000000000e+00 3.905300000000000031e-05 -5.266637000000000228e-03 1.108892630100000076e+01
1.050316388699999948e+01 0.000000000000000000e+00 0.000000000000000000e+00 -1.698689700000000080e-02 1.062544641000000034e+01 0.000000000000000000e+00 -3.133023999999999878e-03 -1.922133499999999912e-02 1.096212285900000083e+01
1.048958575400000015e+01 0.000000000000000000e+00 0.000000000000000000e+00 3.008670000000000181e-03 1.059316560399999929e+01 0.000000000000000000e+00 3.855999999999999673e-05 -5.200118000000000101e-03 1.094887061400000050e+01
1.041459476200000012e+01 0.000000000000000000e+00 0.000000000000000000e+00 -1.684365300000000010e-02 1.053584612500000084e+01 0.000000000000000000e+00 -3.106603999999999789e-03 -1.905924900000000033e-02 1.086968351099999985e+01
1.054963253799999912e+01 0.000000000000000000e+00 0.000000000000000000e+00 3.025892999999999985e-03 1.065380532300000027e+01 0.000000000000000000e+00 3.877999999999999801e-05 -5.229886000000000430e-03 1.101154653600000088e+01
1.051672347200000068e+01 0.000000000000000000e+00 0.000000000000000000e+00 -1.700882700000000067e-02 1.063916386200000019e+01 0.000000000000000000e+00 -3.137067999999999801e-03 -1.924615000000000006e-02 1.097627496099999966e+01
1.042407201199999989e+01 0.000000000000000000e+00 0.000000000000000000e+00 2.989878999999999974e-03 1.052700494399999975e+01 0.000000000000000000e+00 3.831899999999999684e-05 -5.167640000000000254e-03 1.088048836199999947e+01
1.049464998500000057e+01 0.000000000000000000e+00 0.000000000000000000e+00 -1.697312800000000052e-02 1.061683338599999971e+01 0.000000000000000000e+00 -3.130483999999999784e-03 -1.920575500000000144e-02 1.095323692400000049e+01
1.034958322700000011e+01 0.000000000000000000e+00 0.000000000000000000e+00 -1.673850899999999864e-02 1.047007769600000060e+01 0.000000000000000000e+00 -3.087212000000000203e-03 -1.894027499999999947e-02 1.080183115300000019e+01
1.028733387900000018e+01 0.000000000000000000e+00 0.000000000000000000e+00 -1.663783300000000118e-02 1.040710361300000031e+01 0.000000000000000000e+00 -3.068642999999999805e-03 -1.882635499999999948e-02 1.073686168200000068e+01
1.021962302000000022e+01 0.000000000000000000e+00 0.000000000000000000e+00 -1.652832300000000101e-02 1.033860443400000051e+01 0.000000000000000000e+00 -3.048444999999999887e-03 -1.870244100000000020e-02 1.066619204699999912e+01
1.015015855300000069e+01 0.000000000000000000e+00 0.000000000000000000e+00 -1.641597700000000173e-02 1.026833122999999937e+01 0.000000000000000000e+00 -3.027723999999999867e-03 -1.857531700000000091e-02 1.059369217599999935e+01
1.040702901100000055e+01 0.000000000000000000e+00 0.000000000000000000e+00 -1.683141700000000129e-02 1.052819228899999970e+01 0.000000000000000000e+00 -3.104346999999999922e-03 -1.904540399999999842e-02 1.086178715700000019e+01
1.059120706999999939e+01 0.000000000000000000e+00 0.000000000000000000e+00 -1.712928999999999841e-02 1.071451463100000012e+01 0.000000000000000000e+00 -3.159285999999999865e-03 -1.938245900000000119e-02 1.105401328399999983e+01
1.054579907699999985e+01 0.000000000000000000e+00 0.000000000000000000e+00 3.024793000000000013e-03 1.064993400800000067e+01 0.000000000000000000e+00 3.876600000000000120e-05 -5.227985000000000097e-03 1.100754522799999968e+01
1.039446135300000051e+01 0.000000000000000000e+00 0.000000000000000000e+00 -1.681109100000000023e-02 1.051547831299999913e+01 0.000000000000000000e+00 -3.100597999999999983e-03 -1.902240399999999970e-02 1.084867032800000075e+01
1.040373727499999923e+01 0.000000000000000000e+00 0.000000000000000000e+00 -1.682609300000000030e-02 1.052486223000000010e+01 0.000000000000000000e+00 -3.103364999999999856e-03 -1.903938000000000158e-02 1.085835158199999917e+01
1.039217156700000011e+01 0.000000000000000000e+00 0.000000000000000000e+00 2.980729000000000104e-03 1.049478949699999930e+01 0.000000000000000000e+00 3.820100000000000237e-05 -5.151825999999999975e-03 1.084719116199999966e+01
1.065557531500000010e+01 0.000000000000000000e+00 0.000000000000000000e+00 -1.723339399999999910e-02 1.077963227999999951e+01 0.000000000000000000e+00 -3.178486999999999806e-03 -1.950025600000000053e-02 1.112119424199999962e+01
1.041316952899999926e+01 0.000000000000000000e+00 0.000000000000000000e+00 -1.684134799999999904e-02 1.053440429800000011e+01 0.000000000000000000e+00 -3.106179000000000145e-03 -1.905664099999999916e-02 1.086819599899999922e+01
1.056481675300000056e+01 0.000000000000000000e+00 0.000000000000000000e+00 3.030248000000000143e-03 1.066913947399999962e+01 0.000000000000000000e+00 3.883599999999999883e-05 -5.237412999999999791e-03 1.102739558899999928e+01
1.062736919199999974e+01 0.000000000000000000e+00 0.000000000000000000e+00 -1.718777599999999836e-02 1.075109776899999936e+01 0.000000000000000000e+00 -3.170072999999999815e-03 -1.944863800000000073e-02 1.109175559000000000e+01
1.028551839100000009e+01 0.000000000000000000e+00 0.000000000000000000e+00 -1.663489599999999971e-02 1.040526698799999927e+01 0.000000000000000000e+00 -3.068101000000000161e-03 -1.882303299999999943e-02 1.073496686200000028e+01
1.040255885000000013e+01 0.000000000000000000e+00 0.000000000000000000e+00 -1.682418700000000086e-02 1.052367008400000081e+01 0.000000000000000000e+00 -3.103013999999999859e-03 -1.903722299999999895e-02 1.085712166200000084e+01
1.023304612699999971e+01 0.000000000000000000e+00 0.000000000000000000e+00 2.935088000000000193e-03 1.033409276599999949e+01 0.000000000000000000e+00 3.761700000000000254e-05 -5.072941000000000082e-03 1.068109843899999944e+01
1.026742676199999948e+01 0.000000000000000000e+00 0.000000000000000000e+00 -1.660563699999999948e-02 1.038696472900000067e+01 0.000000000000000000e+00 -3.062705000000000202e-03 -1.878992399999999952e-02 1.071608467999999981e+01
1.059927637100000020e+01 0.000000000000000000e+00 0.000000000000000000e+00 3.040132000000000077e-03 1.070393936600000018e+01 0.000000000000000000e+00 3.896299999999999948e-05 -5.254495999999999993e-03 1.106336401699999961e+01
1.062904796399999974e+01 0.000000000000000000e+00 0.000000000000000000e+00 3.048671000000000193e-03 1.073400493900000008e+01 0.000000000000000000e+00 3.907200000000000132e-05 -5.269254999999999599e-03 1.109443915399999980e+01
1.021425233699999957e+01 0.000000000000000000e+00 0.000000000000000000e+00 -1.651963700000000021e-02 1.033317122300000079e+01 0.000000000000000000e+00 -3.046843000000000034e-03 -1.869261200000000081e-02 1.066058667999999976e+01
1.022573029600000005e+01 0.000000000000000000e+00 0.000000000000000000e+00 2.932989999999999903e-03 1.032670469400000002e+01 0.000000000000000000e+00 3.758999999999999755e-05 -5.069314000000000112e-03 1.067346228599999947e+01
1.026688459999999914e+01 0.000000000000000000e+00 0.000000000000000000e+00 -1.660475999999999966e-02 1.038641625400000024e+01 0.000000000000000000e+00 -3.062543000000000036e-03 -1.878893200000000124e-02 1.071551882600000027e+01
1.053091921599999914e+01 0.000000000000000000e+00 0.000000000000000000e+00 3.020525000000000033e-03 1.063490721500000014e+01 0.000000000000000000e+00 3.871199999999999799e-05 -5.220609000000000187e-03 1.099201385499999972e+01
