1.035877222699999933e+01 0.000000000000000000e+00 0.000000000000000000e+00 7.472498000000000161e-03 1.046586119200000020e+01 0.000000000000000000e+00 -1.794027830000000101e+00 -1.213281199999999976e-02 1.057938550100000086e+01
1.040713397100000037e+01 0.000000000000000000e+00 0.000000000000000000e+00 7.507385000000000100e-03 1.051472290000000065e+01 0.000000000000000000e+00 -1.802403564000000014e+00 -1.218945599999999956e-02 1.062877721799999975e+01
1.031746501900000013e+01 0.000000000000000000e+00 0.000000000000000000e+00 1.280663000000000027e-03 1.042061833100000001e+01 0.000000000000000000e+00 -1.796031010000000094e+00 -9.151087000000000457e-03 1.052736175699999954e+01
1.035559388399999925e+01 0.000000000000000000e+00 0.000000000000000000e+00 1.285396000000000065e-03 1.045912840599999960e+01 0.000000000000000000e+00 -1.802668359000000109e+00 -9.184905000000000153e-03 1.056626630999999961e+01
1.036421633199999981e+01 0.000000000000000000e+00 0.000000000000000000e+00 7.476425000000000085e-03 1.047136157799999978e+01 0.000000000000000000e+00 -1.794970689999999980e+00 -1.213918899999999988e-02 1.058494555000000048e+01
1.047166514299999918e+01 0.000000000000000000e+00 0.000000000000000000e+00 1.299802999999999983e-03 1.057636013699999999e+01 0.000000000000000000e+00 -1.822873669000000030e+00 -9.287854999999999375e-03 1.068469890199999917e+01
1.035363320799999975e+01 0.000000000000000000e+00 0.000000000000000000e+00 1.285151999999999909e-03 1.045714812699999996e+01 0.000000000000000000e+00 -1.802327051000000013e+00 -9.183165999999999551e-03 1.056426574500000015e+01
1.060179666099999984e+01 0.000000000000000000e+00 0.000000000000000000e+00 7.647807999999999863e-03 1.071139801200000008e+01 0.000000000000000000e+00 -1.836117046000000030e+00 -1.241745699999999980e-02 1.082758568600000082e+01
1.046221175400000014e+01 0.000000000000000000e+00 0.000000000000000000e+00 7.547116000000000414e-03 1.057037007599999967e+01 0.000000000000000000e+00 -1.811942442000000097e+00 -1.225396699999999929e-02 1.068502800399999941e+01
1.058058128400000086e+01 0.000000000000000000e+00 0.000000000000000000e+00 7.632504000000000025e-03 1.068996330999999955e+01 0.000000000000000000e+00 -1.832442770999999970e+00 -1.239260799999999940e-02 1.080591847900000069e+01
1.055538173599999929e+01 0.000000000000000000e+00 0.000000000000000000e+00 1.310193999999999985e-03 1.066091372300000018e+01 0.000000000000000000e+00 -1.837446783999999944e+00 -9.362106999999999721e-03 1.077011861099999912e+01
1.051947314799999944e+01 0.000000000000000000e+00 0.000000000000000000e+00 7.588423000000000390e-03 1.062822343899999922e+01 0.000000000000000000e+00 -1.821859499999999965e+00 -1.232103499999999928e-02 1.074350890900000088e+01
1.034941121700000011e+01 0.000000000000000000e+00 0.000000000000000000e+00 1.284627999999999898e-03 1.045288392500000008e+01 0.000000000000000000e+00 -1.801592101000000001e+00 -9.179421999999999582e-03 1.055995786399999936e+01
1.033389600499999972e+01 0.000000000000000000e+00 0.000000000000000000e+00 7.454553000000000047e-03 1.044072779899999937e+01 0.000000000000000000e+00 -1.789719536000000000e+00 -1.210367600000000071e-02 1.055397948399999919e+01
1.044917784699999963e+01 0.000000000000000000e+00 0.000000000000000000e+00 7.537714000000000046e-03 1.055720142600000067e+01 0.000000000000000000e+00 -1.809685109999999986e+00 -1.223870099999999940e-02 1.067171651199999971e+01
1.040400129700000065e+01 0.000000000000000000e+00 0.000000000000000000e+00 1.291403999999999903e-03 1.050801979200000069e+01 0.000000000000000000e+00 -1.811094964999999890e+00 -9.227839999999999307e-03 1.061565851399999971e+01
1.028011120200000050e+01 0.000000000000000000e+00 0.000000000000000000e+00 1.276025999999999983e-03 1.038289105299999981e+01 0.000000000000000000e+00 -1.789528578000000092e+00 -9.117955999999999978e-03 1.048924801999999978e+01
1.045184598400000020e+01 0.000000000000000000e+00 0.000000000000000000e+00 7.539638999999999890e-03 1.055989714500000076e+01 0.000000000000000000e+00 -1.810147203000000093e+00 -1.224182600000000079e-02 1.067444147299999990e+01
1.046926494100000049e+01 0.000000000000000000e+00 0.000000000000000000e+00 1.299505000000000061e-03 1.057393593799999998e+01 0.000000000000000000e+00 -1.822455850000000099e+00 -9.285725999999999355e-03 1.068224987099999979e+01
1.036803030299999939e+01 0.000000000000000000e+00 0.000000000000000000e+00 1.286938999999999965e-03 1.047168916300000063e+01 0.000000000000000000e+00 -1.804833251000000027e+00 -9.195936000000000041e-03 1.057895573300000081e+01
1.028250034400000068e+01 0.000000000000000000e+00 0.000000000000000000e+00 1.276322999999999997e-03 1.038530408199999933e+01 0.000000000000000000e+00 -1.789944471999999953e+00 -9.120075000000000057e-03 1.049168576699999988e+01
1.029345982200000087e+01 0.000000000000000000e+00 0.000000000000000000e+00 1.277682999999999944e-03 1.039637313200000079e+01 0.000000000000000000e+00 -1.791852261999999918e+00 -9.129796000000000786e-03 1.050286820300000024e+01
1.032841457700000021e+01 0.000000000000000000e+00 0.000000000000000000e+00 1.282022000000000066e-03 1.043167736200000029e+01 0.000000000000000000e+00 -1.797937072999999941e+00 -9.160799000000000719e-03 1.053853407100000084e+01
1.042250416599999951e+01 0.000000000000000000e+00 0.000000000000000000e+00 7.518472000000000002e-03 1.053025199200000017e+01 0.000000000000000000e+00 -1.805065515999999981e+00 -1.220745900000000037e-02 1.064447475499999918e+01
1.049981112200000055e+01 0.000000000000000000e+00 0.000000000000000000e+00 1.303296999999999919e-03 1.060478751800000019e+01 0.000000000000000000e+00 -1.827773231000000109e+00 -9.312818999999999958e-03 1.071341747800000022e+01
1.065743934700000040e+01 0.000000000000000000e+00 0.000000000000000000e+00 7.687946999999999663e-03 1.076761593200000000e+01 0.000000000000000000e+00 -1.845753760000000021e+00 -1.248262900000000029e-02 1.088441340700000026e+01
1.039499108499999913e+01 0.000000000000000000e+00 0.000000000000000000e+00 1.290286000000000080e-03 1.049891949699999927e+01 0.000000000000000000e+00 -1.809526497000000012e+00 -9.219849000000000447e-03 1.060646500000000003e+01
1.033781757899999931e+01 0.000000000000000000e+00 0.000000000000000000e+00 1.283188999999999901e-03 1.044117437499999923e+01 0.000000000000000000e+00 -1.799573918000000106e+00 -9.169138999999999762e-03 1.054812836600000026e+01
1.028676274300000060e+01 0.000000000000000000e+00 0.000000000000000000e+00 1.276851999999999978e-03 1.038960909500000085e+01 0.000000000000000000e+00 -1.790686455999999982e+00 -9.123855999999999633e-03 1.049603487899999976e+01
1.031542221199999965e+01 0.000000000000000000e+00 0.000000000000000000e+00 1.280408999999999931e-03 1.041855510000000073e+01 0.000000000000000000e+00 -1.795675404000000031e+00 -9.149275000000000116e-03 1.052527739199999957e+01
1.042127937000000060e+01 0.000000000000000000e+00 0.000000000000000000e+00 1.293548999999999958e-03 1.052547061099999937e+01 0.000000000000000000e+00 -1.814102676999999941e+00 -9.243164999999999368e-03 1.063328808900000055e+01
1.033895490799999983e+01 0.000000000000000000e+00 0.000000000000000000e+00 1.283330000000000061e-03 1.044232307400000082e+01 0.000000000000000000e+00 -1.799771900000000091e+00 -9.170147000000000020e-03 1.054928883300000031e+01
1.060301715199999961e+01 0.000000000000000000e+00 0.000000000000000000e+00 7.648689000000000182e-03 1.071263112099999937e+01 0.000000000000000000e+00 -1.836328422000000016e+00 -1.241888699999999998e-02 1.082883217000000009e+01
1.047953127799999962e+01 0.000000000000000000e+00 0.000000000000000000e+00 7.559609999999999594e-03 1.058786865000000077e+01 0.000000000000000000e+00 -1.814941997999999890e+00 -1.227425199999999939e-02 1.070271638800000069e+01
1.035848204300000042e+01 0.000000000000000000e+00 0.000000000000000000e+00 1.285754000000000064e-03 1.046204544100000078e+01 0.000000000000000000e+00 -1.803171121000000099e+00 -9.187466999999999509e-03 1.056921322500000038e+01
1.041372840400000044e+01 0.000000000000000000e+00 0.000000000000000000e+00 7.512142000000000298e-03 1.052138550599999967e+01 0.000000000000000000e+00 -1.803545648000000057e+00 -1.219718000000000017e-02 1.063551209299999911e+01
1.029653757100000000e+01 0.000000000000000000e+00 0.000000000000000000e+00 1.278065000000000104e-03 1.039948165200000041e+01 0.000000000000000000e+00 -1.792388027000000106e+00 -9.132525000000000712e-03 1.050600856500000013e+01
1.027364877199999960e+01 0.000000000000000000e+00 0.000000000000000000e+00 1.275223999999999932e-03 1.037636401199999980e+01 0.000000000000000000e+00 -1.788403619000000111e+00 -9.112224000000000365e-03 1.048265411999999941e+01
1.058347816600000080e+01 0.000000000000000000e+00 0.000000000000000000e+00 1.313682000000000044e-03 1.068929105900000032e+01 0.000000000000000000e+00 -1.842337719999999956e+00 -9.387028000000000386e-03 1.079878663000000039e+01
1.049853851099999957e+01 0.000000000000000000e+00 0.000000000000000000e+00 7.573321000000000046e-03 1.060707237999999997e+01 0.000000000000000000e+00 -1.818233846000000042e+00 -1.229651499999999918e-02 1.072212842200000082e+01
1.062232747800000077e+01 0.000000000000000000e+00 0.000000000000000000e+00 1.318504000000000074e-03 1.072852878399999987e+01 0.000000000000000000e+00 -1.849100482000000101e+00 -9.421485000000000276e-03 1.083842628500000060e+01
1.059849572499999937e+01 0.000000000000000000e+00 0.000000000000000000e+00 1.315545999999999903e-03 1.070445876199999979e+01 0.000000000000000000e+00 -1.844951927999999963e+00 -9.400346999999999870e-03 1.081410970299999974e+01
1.031000605400000047e+01 0.000000000000000000e+00 0.000000000000000000e+00 1.279736999999999975e-03 1.041308479199999937e+01 0.000000000000000000e+00 -1.794732576999999996e+00 -9.144470999999999503e-03 1.051975104799999983e+01
1.059421003599999977e+01 0.000000000000000000e+00 0.000000000000000000e+00 7.642335999999999574e-03 1.070373295699999971e+01 0.000000000000000000e+00 -1.834803124000000007e+00 -1.240857100000000018e-02 1.081983748699999914e+01
1.023406034199999937e+01 0.000000000000000000e+00 0.000000000000000000e+00 1.270309999999999972e-03 1.033637977999999968e+01 0.000000000000000000e+00 -1.781512192999999966e+00 -9.077111000000000554e-03 1.044226030999999999e+01
1.049726970200000054e+01 0.000000000000000000e+00 0.000000000000000000e+00 1.302980999999999931e-03 1.060222068899999925e+01 0.000000000000000000e+00 -1.827330828000000018e+00 -9.310564999999999813e-03 1.071082435599999982e+01
1.035366763500000076e+01 0.000000000000000000e+00 0.000000000000000000e+00 1.285155999999999972e-03 1.045718289799999923e+01 0.000000000000000000e+00 -1.802333044000000051e+00 -9.183197000000000582e-03 1.056430087300000054e+01
1.056391077500000009e+01 0.000000000000000000e+00 0.000000000000000000e+00 7.620479000000000315e-03 1.067312046199999997e+01 0.000000000000000000e+00 -1.829555618000000106e+00 -1.237308300000000000e-02 1.078889293499999980e+01
1.049890975499999968e+01 0.000000000000000000e+00 0.000000000000000000e+00 1.303185000000000107e-03 1.060387713899999973e+01 0.000000000000000000e+00 -1.827616324000000070e+00 -9.312020000000000713e-03 1.071249777399999914e+01
1.046444875499999938e+01 0.000000000000000000e+00 0.000000000000000000e+00 1.298906999999999970e-03 1.056907160099999921e+01 0.000000000000000000e+00 -1.821617464000000020e+00 -9.281453999999999746e-03 1.067733570500000084e+01
1.040499600300000083e+01 0.000000000000000000e+00 0.000000000000000000e+00 7.505842999999999890e-03 1.051256283000000025e+01 0.000000000000000000e+00 -1.802033291000000093e+00 -1.218695199999999916e-02 1.062659371700000044e+01
1.050410324899999992e+01 0.000000000000000000e+00 0.000000000000000000e+00 1.303829000000000056e-03 1.060912255699999918e+01 0.000000000000000000e+00 -1.828520389999999995e+00 -9.316625999999999727e-03 1.071779692299999986e+01
1.038107956300000012e+01 0.000000000000000000e+00 0.000000000000000000e+00 1.288559000000000102e-03 1.048486888899999947e+01 0.000000000000000000e+00 -1.807104824000000054e+00 -9.207510000000000347e-03 1.059227046500000036e+01
1.035645311999999940e+01 0.000000000000000000e+00 0.000000000000000000e+00 7.470825000000000382e-03 1.046351811000000076e+01 0.000000000000000000e+00 -1.793626186000000011e+00 -1.213009599999999993e-02 1.057701700400000000e+01
1.036655291099999943e+01 0.000000000000000000e+00 0.000000000000000000e+00 1.286756000000000011e-03 1.047019700000000064e+01 0.000000000000000000e+00 -1.804576071000000059e+00 -9.194625999999999147e-03 1.057744828499999912e+01
1.038834819300000056e+01 0.000000000000000000e+00 0.000000000000000000e+00 7.493833000000000091e-03 1.049574291499999923e+01 0.000000000000000000e+00 -1.799150068999999963e+00 -1.216745299999999995e-02 1.060959135400000086e+01
1.042493920699999954e+01 0.000000000000000000e+00 0.000000000000000000e+00 1.294002999999999950e-03 1.052916703900000073e+01 0.000000000000000000e+00 -1.814739769000000003e+00 -9.246410999999999519e-03 1.063702238199999961e+01
1.031190916399999935e+01 0.000000000000000000e+00 0.000000000000000000e+00 1.279973000000000005e-03 1.041500692900000047e+01 0.000000000000000000e+00 -1.795063864000000065e+00 -9.146158999999999192e-03 1.052169287499999939e+01
1.040457675899999934e+01 0.000000000000000000e+00 0.000000000000000000e+00 7.505539999999999781e-03 1.051213925200000077e+01 0.000000000000000000e+00 -1.801960682000000036e+00 -1.218646100000000086e-02 1.062616554399999913e+01
1.046045002600000018e+01 0.000000000000000000e+00 0.000000000000000000e+00 1.298410999999999966e-03 1.056503289299999970e+01 0.000000000000000000e+00 -1.820921377999999979e+00 -9.277907999999999641e-03 1.067325562699999963e+01
1.037027417500000048e+01 0.000000000000000000e+00 0.000000000000000000e+00 1.287217999999999913e-03 1.047395546899999985e+01 0.000000000000000000e+00 -1.805223857000000098e+00 -9.197926000000000366e-03 1.058124525400000060e+01
1.041415269600000038e+01 0.000000000000000000e+00 0.000000000000000000e+00 1.292664000000000009e-03 1.051827268399999937e+01 0.000000000000000000e+00 -1.812862087999999927e+00 -9.236843999999999263e-03 1.062601643100000004e+01
1.045914576999999923e+01 0.000000000000000000e+00 0.000000000000000000e+00 7.544905000000000188e-03 1.056727239599999990e+01 0.000000000000000000e+00 -1.811411447000000008e+00 -1.225037600000000032e-02 1.068189672399999957e+01
1.064258603400000069e+01 0.000000000000000000e+00 0.000000000000000000e+00 7.677233000000000321e-03 1.075260906599999977e+01 0.000000000000000000e+00 -1.843181326000000064e+00 -1.246523199999999970e-02 1.086924375999999981e+01
1.027064852900000069e+01 0.000000000000000000e+00 0.000000000000000000e+00 1.274851999999999930e-03 1.037333377200000051e+01 0.000000000000000000e+00 -1.787881346000000038e+00 -9.109562999999999341e-03 1.047959284000000046e+01
1.037804782899999978e+01 0.000000000000000000e+00 0.000000000000000000e+00 1.288183000000000036e-03 1.048180684399999940e+01 0.000000000000000000e+00 -1.806577069999999896e+00 -9.204821000000000183e-03 1.058917705300000023e+01
1.050266096800000071e+01 0.000000000000000000e+00 0.000000000000000000e+00 7.576295000000000252e-03 1.061123745499999949e+01 0.000000000000000000e+00 -1.818947810999999914e+00 -1.230134299999999931e-02 1.072633867599999924e+01
1.049986874000000014e+01 0.000000000000000000e+00 0.000000000000000000e+00 1.303303999999999921e-03 1.060484571199999948e+01 0.000000000000000000e+00 -1.827783260999999992e+00 -9.312869999999999135e-03 1.071347626800000086e+01
1.033028587299999934e+01 0.000000000000000000e+00 0.000000000000000000e+00 1.282254000000000033e-03 1.043356736700000020e+01 0.000000000000000000e+00 -1.798262822999999955e+00 -9.162458000000000061e-03 1.054044343700000042e+01
1.047707275199999977e+01 0.000000000000000000e+00 0.000000000000000000e+00 7.557836000000000068e-03 1.058538470699999934e+01 0.000000000000000000e+00 -1.814516207000000048e+00 -1.227137300000000035e-02 1.070020550099999923e+01
1.026955514800000024e+01 0.000000000000000000e+00 0.000000000000000000e+00 7.408139999999999691e-03 1.037572178699999981e+01 0.000000000000000000e+00 -1.778576391999999950e+00 -1.202831600000000070e-02 1.048826834399999974e+01
1.048027624000000024e+01 0.000000000000000000e+00 0.000000000000000000e+00 1.300872000000000009e-03 1.058505732799999954e+01 0.000000000000000000e+00 -1.824372660999999951e+00 -9.295493000000000158e-03 1.069348518199999987e+01
1.040383666399999996e+01 0.000000000000000000e+00 0.000000000000000000e+00 1.291384000000000021e-03 1.050785351400000067e+01 0.000000000000000000e+00 -1.811066306999999931e+00 -9.227693999999999827e-03 1.061549053200000081e+01
1.052517113699999918e+01 0.000000000000000000e+00 0.000000000000000000e+00 7.592533000000000268e-03 1.063398033400000031e+01 0.000000000000000000e+00 -1.822846329999999959e+00 -1.232770899999999920e-02 1.074932824999999958e+01
1.047857550600000032e+01 0.000000000000000000e+00 0.000000000000000000e+00 7.558920999999999696e-03 1.058690299799999934e+01 0.000000000000000000e+00 -1.814776468000000031e+00 -1.227313300000000031e-02 1.070174025999999934e+01
1.039981137800000077e+01 0.000000000000000000e+00 0.000000000000000000e+00 1.290883999999999955e-03 1.050378798300000049e+01 0.000000000000000000e+00 -1.810365597999999965e+00 -9.224124000000000212e-03 1.061138335599999927e+01
1.053429984299999944e+01 0.000000000000000000e+00 0.000000000000000000e+00 1.307577999999999996e-03 1.063962105499999922e+01 0.000000000000000000e+00 -1.833776915999999924e+00 -9.343409000000000436e-03 1.074860783199999936e+01
1.047667694000000083e+01 0.000000000000000000e+00 0.000000000000000000e+00 7.557551000000000026e-03 1.058498480399999941e+01 0.000000000000000000e+00 -1.814447657000000103e+00 -1.227090899999999998e-02 1.069980125999999920e+01
1.050771623500000018e+01 0.000000000000000000e+00 0.000000000000000000e+00 1.304278000000000078e-03 1.061277166600000044e+01 0.000000000000000000e+00 -1.829149327000000103e+00 -9.319831000000000643e-03 1.072148341099999946e+01
1.059802163099999994e+01 0.000000000000000000e+00 0.000000000000000000e+00 7.645085000000000248e-03 1.070758395600000057e+01 0.000000000000000000e+00 -1.835463250999999962e+00 -1.241303499999999935e-02 1.082373025799999944e+01
1.044543101500000049e+01 0.000000000000000000e+00 0.000000000000000000e+00 1.296547000000000107e-03 1.054986372299999964e+01 0.000000000000000000e+00 -1.818306916999999912e+00 -9.264586999999999475e-03 1.065793107200000023e+01
1.049947870099999925e+01 0.000000000000000000e+00 0.000000000000000000e+00 1.303254999999999908e-03 1.060445177399999928e+01 0.000000000000000000e+00 -1.827715363999999898e+00 -9.312524000000000843e-03 1.071307829400000067e+01
1.043752162600000055e+01 0.000000000000000000e+00 0.000000000000000000e+00 7.529306000000000366e-03 1.054542470200000004e+01 0.000000000000000000e+00 -1.807666377999999963e+00 -1.222504800000000051e-02 1.065981204500000068e+01
1.056763523200000066e+01 0.000000000000000000e+00 0.000000000000000000e+00 7.623165000000000323e-03 1.067688342299999960e+01 0.000000000000000000e+00 -1.830200653999999982e+00 -1.237744500000000081e-02 1.079269671199999969e+01
1.037559103100000080e+01 0.000000000000000000e+00 0.000000000000000000e+00 1.287877999999999896e-03 1.047932548200000014e+01 0.000000000000000000e+00 -1.806149398000000073e+00 -9.202642000000000461e-03 1.058667027399999938e+01
1.026504283699999931e+01 0.000000000000000000e+00 0.000000000000000000e+00 7.404884999999999939e-03 1.037116282799999922e+01 0.000000000000000000e+00 -1.777794909000000034e+00 -1.202303100000000000e-02 1.048365993400000029e+01
1.027037977300000016e+01 0.000000000000000000e+00 0.000000000000000000e+00 1.274818000000000045e-03 1.037306232899999969e+01 0.000000000000000000e+00 -1.787834562000000016e+00 -9.109324999999999714e-03 1.047931861700000056e+01
1.044386902399999961e+01 0.000000000000000000e+00 0.000000000000000000e+00 1.296353000000000089e-03 1.054828611399999971e+01 0.000000000000000000e+00 -1.818035011000000090e+00 -9.263201000000000421e-03 1.065633730300000082e+01
1.034779573299999988e+01 0.000000000000000000e+00 0.000000000000000000e+00 1.284428000000000002e-03 1.045125228899999925e+01 0.000000000000000000e+00 -1.801310881999999891e+00 -9.177988999999999245e-03 1.055830951399999940e+01
1.040099562800000044e+01 0.000000000000000000e+00 0.000000000000000000e+00 1.291030999999999993e-03 1.050498407299999926e+01 0.000000000000000000e+00 -1.810571748000000092e+00 -9.225175000000000389e-03 1.061259169799999924e+01
1.030477480699999937e+01 0.000000000000000000e+00 0.000000000000000000e+00 1.279088000000000057e-03 1.040780124299999976e+01 0.000000000000000000e+00 -1.793821938000000005e+00 -9.139830999999999303e-03 1.051441337800000042e+01
1.050637848500000082e+01 0.000000000000000000e+00 0.000000000000000000e+00 7.578976999999999763e-03 1.061499340299999972e+01 0.000000000000000000e+00 -1.819591645000000035e+00 -1.230569800000000033e-02 1.073013536500000065e+01
1.032028438899999934e+01 0.000000000000000000e+00 0.000000000000000000e+00 1.281012999999999900e-03 1.042346588800000085e+01 0.000000000000000000e+00 -1.796521795999999949e+00 -9.153588000000000696e-03 1.053023848299999976e+01
1.029535929200000055e+01 0.000000000000000000e+00 0.000000000000000000e+00 1.277918999999999973e-03 1.039829159299999972e+01 0.000000000000000000e+00 -1.792182916000000015e+00 -9.131480000000000846e-03 1.050480631499999973e+01
1.032099420299999970e+01 0.000000000000000000e+00 0.000000000000000000e+00 1.281100999999999985e-03 1.042418279900000044e+01 0.000000000000000000e+00 -1.796645357999999915e+00 -9.154216999999999216e-03 1.053096273799999949e+01
1.043010323700000086e+01 0.000000000000000000e+00 0.000000000000000000e+00 1.294643999999999960e-03 1.053438269799999993e+01 0.000000000000000000e+00 -1.815638706999999963e+00 -9.250991999999999549e-03 1.064229146799999981e+01
1.038993370999999932e+01 0.000000000000000000e+00 0.000000000000000000e+00 1.289657999999999950e-03 1.049381155899999918e+01 0.000000000000000000e+00 -1.808646125000000104e+00 -9.215363000000000721e-03 1.060130473899999970e+01
1.052882420799999963e+01 0.000000000000000000e+00 0.000000000000000000e+00 7.595168000000000232e-03 1.063767117000000084e+01 0.000000000000000000e+00 -1.823479003000000098e+00 -1.233198700000000085e-02 1.075305912099999972e+01
1.037994267100000023e+01 0.000000000000000000e+00 0.000000000000000000e+00 7.487770000000000363e-03 1.048725049599999970e+01 0.000000000000000000e+00 -1.797694322999999983e+00 -1.215760800000000030e-02 1.060100681800000011e+01
1.053996603799999932e+01 0.000000000000000000e+00 0.000000000000000000e+00 1.308280999999999897e-03 1.064534390000000030e+01 0.000000000000000000e+00 -1.834763268999999974e+00 -9.348435000000000425e-03 1.075438929899999962e+01
