1.045732497200000033e+01 0.000000000000000000e+00 0.000000000000000000e+00 1.298022999999999929e-03 1.056187659499999931e+01 0.000000000000000000e+00 -1.820377378999999962e+00 -9.275135999999999797e-03 1.067006699699999928e+01
1.053253838300000034e+01 0.000000000000000000e+00 0.000000000000000000e+00 1.307358999999999908e-03 1.063784198399999958e+01 0.000000000000000000e+00 -1.833470286999999921e+00 -9.341847000000000345e-03 1.074681053700000000e+01
1.037584103800000079e+01 0.000000000000000000e+00 0.000000000000000000e+00 1.287909000000000059e-03 1.047957798999999923e+01 0.000000000000000000e+00 -1.806192918999999897e+00 -9.202863999999999836e-03 1.058692536799999928e+01
1.032922012799999933e+01 0.000000000000000000e+00 0.000000000000000000e+00 1.282121999999999906e-03 1.043249096699999967e+01 0.000000000000000000e+00 -1.798077300999999961e+00 -9.161512999999999601e-03 1.053935601000000055e+01
1.047578000200000048e+01 0.000000000000000000e+00 0.000000000000000000e+00 7.556903999999999705e-03 1.058407859299999920e+01 0.000000000000000000e+00 -1.814292317000000043e+00 -1.226985899999999928e-02 1.069888521899999922e+01
1.042485140099999974e+01 0.000000000000000000e+00 0.000000000000000000e+00 7.520166000000000003e-03 1.053262349299999912e+01 0.000000000000000000e+00 -1.805472031999999949e+00 -1.221020800000000017e-02 1.064687198000000024e+01
1.044261796600000025e+01 0.000000000000000000e+00 0.000000000000000000e+00 7.532981999999999699e-03 1.055057372899999990e+01 0.000000000000000000e+00 -1.808549009000000041e+00 -1.223101700000000028e-02 1.066501692399999968e+01
1.050904900299999944e+01 0.000000000000000000e+00 0.000000000000000000e+00 7.580902999999999947e-03 1.061769152900000002e+01 0.000000000000000000e+00 -1.820054150000000037e+00 -1.230882500000000067e-02 1.073286275799999956e+01
1.040585263500000046e+01 0.000000000000000000e+00 0.000000000000000000e+00 1.291634000000000055e-03 1.050988964000000081e+01 0.000000000000000000e+00 -1.811417239999999929e+00 -9.229482000000000658e-03 1.061754751500000005e+01
1.043387192600000013e+01 0.000000000000000000e+00 0.000000000000000000e+00 1.295111999999999956e-03 1.053818906599999927e+01 0.000000000000000000e+00 -1.816294748000000014e+00 -9.254333999999999477e-03 1.064613682599999933e+01
1.030351297099999996e+01 0.000000000000000000e+00 0.000000000000000000e+00 7.432636000000000277e-03 1.041003066600000082e+01 0.000000000000000000e+00 -1.784457522000000074e+00 -1.206808900000000059e-02 1.052294937499999961e+01
1.036173709800000076e+01 0.000000000000000000e+00 0.000000000000000000e+00 7.474637000000000121e-03 1.046885671399999929e+01 0.000000000000000000e+00 -1.794541313999999943e+00 -1.213628500000000013e-02 1.058241351600000080e+01
1.031700967299999938e+01 0.000000000000000000e+00 0.000000000000000000e+00 1.280606000000000105e-03 1.042015843199999914e+01 0.000000000000000000e+00 -1.795951743999999906e+00 -9.150682999999999734e-03 1.052689714699999968e+01
1.031518530299999981e+01 0.000000000000000000e+00 0.000000000000000000e+00 7.441055999999999712e-03 1.042182366599999987e+01 0.000000000000000000e+00 -1.786479044000000016e+00 -1.208176099999999989e-02 1.053487029599999936e+01
1.041971050599999948e+01 0.000000000000000000e+00 0.000000000000000000e+00 7.516456999999999826e-03 1.052742945099999972e+01 0.000000000000000000e+00 -1.804581683999999964e+00 -1.220418700000000002e-02 1.064162159800000040e+01
1.046936685000000011e+01 0.000000000000000000e+00 0.000000000000000000e+00 1.299517999999999941e-03 1.057403886600000043e+01 0.000000000000000000e+00 -1.822473589999999977e+00 -9.285816000000000556e-03 1.068235385300000040e+01
1.036948125700000034e+01 0.000000000000000000e+00 0.000000000000000000e+00 7.480223000000000254e-03 1.047668093200000072e+01 0.000000000000000000e+00 -1.795882519000000066e+00 -1.214535500000000004e-02 1.059032260400000069e+01
1.038559638699999965e+01 0.000000000000000000e+00 0.000000000000000000e+00 1.289119999999999936e-03 1.048943087199999979e+01 0.000000000000000000e+00 -1.807891098000000030e+00 -9.211515999999999454e-03 1.059687917900000009e+01
1.038057994499999914e+01 0.000000000000000000e+00 0.000000000000000000e+00 7.488230000000000233e-03 1.048789435900000022e+01 0.000000000000000000e+00 -1.797804691999999926e+00 -1.215835499999999916e-02 1.060165766399999931e+01
1.056428425700000062e+01 0.000000000000000000e+00 0.000000000000000000e+00 7.620748000000000105e-03 1.067349780500000023e+01 0.000000000000000000e+00 -1.829620301000000060e+00 -1.237352000000000070e-02 1.078927437099999942e+01
1.040710190299999915e+01 0.000000000000000000e+00 0.000000000000000000e+00 7.507362000000000063e-03 1.051469050100000047e+01 0.000000000000000000e+00 -1.802398010000000106e+00 -1.218941899999999995e-02 1.062874446600000056e+01
1.032288765300000044e+01 0.000000000000000000e+00 0.000000000000000000e+00 7.446612000000000023e-03 1.042960564300000037e+01 0.000000000000000000e+00 -1.787813008000000092e+00 -1.209078199999999957e-02 1.054273668499999950e+01
1.042203950400000068e+01 0.000000000000000000e+00 0.000000000000000000e+00 1.293642999999999920e-03 1.052623834499999944e+01 0.000000000000000000e+00 -1.814234998000000099e+00 -9.243839000000000222e-03 1.063406368799999946e+01
1.042871232499999934e+01 0.000000000000000000e+00 0.000000000000000000e+00 7.522950999999999944e-03 1.053652433100000074e+01 0.000000000000000000e+00 -1.806140701999999987e+00 -1.221473000000000003e-02 1.065081513099999988e+01
1.049161219199999984e+01 0.000000000000000000e+00 0.000000000000000000e+00 7.568324999999999879e-03 1.060007445599999976e+01 0.000000000000000000e+00 -1.817034282000000056e+00 -1.228840200000000035e-02 1.071505459099999946e+01
1.029779723300000072e+01 0.000000000000000000e+00 0.000000000000000000e+00 1.278220999999999958e-03 1.040075390700000035e+01 0.000000000000000000e+00 -1.792607304999999984e+00 -9.133643000000000317e-03 1.050729385300000018e+01
1.030899973000000003e+01 0.000000000000000000e+00 0.000000000000000000e+00 7.436594000000000364e-03 1.041557414699999917e+01 0.000000000000000000e+00 -1.785407769000000089e+00 -1.207451600000000042e-02 1.052855298799999950e+01
1.034218010800000087e+01 0.000000000000000000e+00 0.000000000000000000e+00 7.460528999999999598e-03 1.044909754400000068e+01 0.000000000000000000e+00 -1.791154254000000057e+00 -1.211337900000000051e-02 1.056244001600000004e+01
1.036113789500000060e+01 0.000000000000000000e+00 0.000000000000000000e+00 1.286084000000000055e-03 1.046472784600000061e+01 0.000000000000000000e+00 -1.803633443000000058e+00 -9.189822999999999742e-03 1.057192310699999993e+01
1.032661739799999978e+01 0.000000000000000000e+00 0.000000000000000000e+00 7.449303000000000001e-03 1.043337394699999976e+01 0.000000000000000000e+00 -1.788458960000000042e+00 -1.209515100000000017e-02 1.054654586400000049e+01
1.036234936500000003e+01 0.000000000000000000e+00 0.000000000000000000e+00 1.286234000000000032e-03 1.046595142700000025e+01 0.000000000000000000e+00 -1.803844331999999939e+00 -9.190896999999999956e-03 1.057315922199999925e+01
1.038575712599999967e+01 0.000000000000000000e+00 0.000000000000000000e+00 7.491964000000000262e-03 1.049312506000000056e+01 0.000000000000000000e+00 -1.798701324000000046e+00 -1.216441899999999923e-02 1.060694510399999935e+01
1.048131627000000066e+01 0.000000000000000000e+00 0.000000000000000000e+00 1.301000999999999980e-03 1.058610775600000053e+01 0.000000000000000000e+00 -1.824553706999999969e+00 -9.296415000000000581e-03 1.069454636999999941e+01
1.038278524999999952e+01 0.000000000000000000e+00 0.000000000000000000e+00 1.288770999999999970e-03 1.048659162899999941e+01 0.000000000000000000e+00 -1.807401744000000088e+00 -9.209023000000000209e-03 1.059401085100000017e+01
1.027007763099999949e+01 0.000000000000000000e+00 0.000000000000000000e+00 1.274781000000000004e-03 1.037275716699999961e+01 0.000000000000000000e+00 -1.787781966000000056e+00 -9.109057000000000265e-03 1.047901032799999932e+01
1.038041568200000064e+01 0.000000000000000000e+00 0.000000000000000000e+00 7.488111000000000420e-03 1.048772839699999970e+01 0.000000000000000000e+00 -1.797776244000000023e+00 -1.215816200000000014e-02 1.060148990200000085e+01
1.036745862699999954e+01 0.000000000000000000e+00 0.000000000000000000e+00 7.478763999999999725e-03 1.047463739199999999e+01 0.000000000000000000e+00 -1.795532220999999984e+00 -1.214298599999999971e-02 1.058825689799999914e+01
1.045603425300000033e+01 0.000000000000000000e+00 0.000000000000000000e+00 7.542659999999999643e-03 1.056412871300000056e+01 0.000000000000000000e+00 -1.810872566000000017e+00 -1.224673100000000028e-02 1.067871893999999955e+01
1.051953540599999926e+01 0.000000000000000000e+00 0.000000000000000000e+00 7.588468000000000123e-03 1.062828634100000080e+01 0.000000000000000000e+00 -1.821870281999999897e+00 -1.232110800000000075e-02 1.074357249300000028e+01
1.040708372199999943e+01 0.000000000000000000e+00 0.000000000000000000e+00 1.291786999999999970e-03 1.051113303600000037e+01 0.000000000000000000e+00 -1.811631543999999927e+00 -9.230574000000000071e-03 1.061880364800000009e+01
1.054774657699999985e+01 0.000000000000000000e+00 0.000000000000000000e+00 1.309246999999999928e-03 1.065320222799999961e+01 0.000000000000000000e+00 -1.836117680000000085e+00 -9.355334999999999346e-03 1.076232812399999972e+01
1.040277507999999962e+01 0.000000000000000000e+00 0.000000000000000000e+00 1.291251999999999895e-03 1.050678131599999965e+01 0.000000000000000000e+00 -1.810881509999999972e+00 -9.226753000000000732e-03 1.061440735100000055e+01
1.039576870299999989e+01 0.000000000000000000e+00 0.000000000000000000e+00 7.499185999999999699e-03 1.050324013800000067e+01 0.000000000000000000e+00 -1.800435221000000086e+00 -1.217614499999999933e-02 1.061716990100000046e+01
1.034684624299999989e+01 0.000000000000000000e+00 0.000000000000000000e+00 1.284310000000000096e-03 1.045029330600000073e+01 0.000000000000000000e+00 -1.801145597999999959e+00 -9.177147000000000082e-03 1.055734070699999982e+01
1.033144589700000004e+01 0.000000000000000000e+00 0.000000000000000000e+00 7.452786000000000306e-03 1.043825236200000006e+01 0.000000000000000000e+00 -1.789295204000000084e+00 -1.210080600000000041e-02 1.055147719600000045e+01
1.039323328300000071e+01 0.000000000000000000e+00 0.000000000000000000e+00 7.497356999999999633e-03 1.050067850699999994e+01 0.000000000000000000e+00 -1.799996114000000036e+00 -1.217317499999999962e-02 1.061458048299999923e+01
1.047724361999999942e+01 0.000000000000000000e+00 0.000000000000000000e+00 1.300495000000000036e-03 1.058199438800000003e+01 0.000000000000000000e+00 -1.823844752999999930e+00 -9.292803000000000521e-03 1.069039086699999963e+01
1.052581586300000005e+01 0.000000000000000000e+00 0.000000000000000000e+00 1.306524000000000097e-03 1.063105225300000001e+01 0.000000000000000000e+00 -1.832300051999999901e+00 -9.335883999999999155e-03 1.073995125499999936e+01
1.035456676299999934e+01 0.000000000000000000e+00 0.000000000000000000e+00 1.285268000000000001e-03 1.045809101599999913e+01 0.000000000000000000e+00 -1.802489561000000018e+00 -9.183993999999999144e-03 1.056521829299999915e+01
1.047920861300000084e+01 0.000000000000000000e+00 0.000000000000000000e+00 7.559376999999999937e-03 1.058754264899999953e+01 0.000000000000000000e+00 -1.814886116000000049e+00 -1.227387500000000006e-02 1.070238684999999990e+01
