4.820310000000000095e+00 3.163829999999999920e+00 2.699629999999999974e+00 3.802360000000000184e+00 2.963340000000000085e+00 8.043419999999999348e+00 4.827219999999999622e+00 8.246990000000000265e+00 2.537630000000000052e+00 3.695279999999999898e+00 8.356659999999999755e+00 7.733019999999999783e+00 -3.971000000000000085e-01 3.138739999999999863e+00 2.560439999999999827e+00 -1.189319999999999933e+00 3.111920000000000019e+00 8.376580000000000581e+00 9.861720000000000041e+00 8.387109999999999843e+00 2.369670000000000165e+00 -1.331820000000000004e+00 8.280469999999999331e+00 7.973589999999999733e+00 1.663929999999999909e+00 4.546600000000000086e-01 3.196549999999999780e+00 7.178799999999999626e-01 3.599300000000000277e-01 8.420439999999999259e+00 1.845599999999999907e+00 5.700569999999999915e+00 3.096000000000000085e+00 8.862900000000000222e-01 5.597839999999999705e+00 8.521979999999999222e+00 7.110629999999999562e+00 3.407999999999999918e-01 3.018089999999999939e+00 6.223300000000000054e+00 5.704599999999999671e-01 8.410959999999999326e+00 7.264149999999999885e+00 5.670270000000000366e+00 3.192260000000000097e+00 6.067479999999999762e+00 5.586100000000000065e+00 8.395949999999999136e+00 2.492189999999999905e+00 2.735430000000000028e+00 6.576499999999999568e-01 1.271579999999999933e+00 2.654560000000000031e+00 6.000580000000000247e+00 2.309340000000000170e+00 8.037639999999999674e+00 4.546200000000000241e-01 1.260520000000000085e+00 8.024749999999999162e+00 5.758740000000000414e+00 7.499220000000000219e+00 2.912389999999999812e+00 2.723400000000000265e-01 6.809800000000000075e+00 2.801790000000000003e+00 5.883409999999999584e+00 7.319090000000000096e+00 7.916299999999999670e+00 3.367899999999999783e-01 6.528030000000000221e+00 7.876619999999999955e+00 5.909440000000000026e+00 4.262550000000000061e+00 3.212999999999999884e-02 5.255279999999999951e+00 3.528840000000000199e+00 1.140100000000000002e-01 1.062489000000000061e+01 4.036909999999999776e+00 5.241389999999999993e+00 5.146200000000000330e+00 3.250039999999999818e+00 5.456839999999999691e+00 1.065079000000000065e+01 -8.142599999999999838e-01 1.043365000000000009e+01 5.245110000000000383e+00 8.421950000000000713e+00 1.043205000000000027e+01 1.061879000000000062e+01 -9.261599999999999833e-01 5.335329999999999906e+00 5.457169999999999632e+00 8.606809999999999405e+00 5.314969999999999750e+00 1.060698999999999970e+01 3.577840000000000131e+00 4.620639999999999858e+00 3.518650000000000055e+00 2.613949999999999996e+00 4.257019999999999804e+00 9.168260000000000076e+00 3.417629999999999946e+00 9.983370000000000744e+00 3.352650000000000130e+00 2.267370000000000108e+00 9.711909999999999599e+00 8.679520000000000124e+00 8.925789999999999225e+00 4.582510000000000083e+00 3.354200000000000070e+00 7.615630000000000344e+00 4.558860000000000134e+00 9.028290000000000148e+00 8.775959999999999539e+00 9.950950000000000628e+00 3.308199999999999807e+00 7.527059999999999640e+00 9.775119999999999365e+00 8.865949999999999775e+00 3.144849999999999923e+00 1.857320000000000082e+00 2.217680000000000096e+00 2.050040000000000084e+00 1.782200000000000006e+00 7.667570000000000441e+00 3.122349999999999959e+00 6.962790000000000035e+00 2.243339999999999890e+00 2.091219999999999857e+00 7.005489999999999995e+00 7.574169999999999625e+00 8.239940000000000708e+00 2.230189999999999895e+00 2.474009999999999820e+00 7.666310000000000180e+00 2.050149999999999917e+00 7.672749999999999737e+00 8.347709999999999297e+00 7.122110000000000163e+00 1.882880000000000109e+00 7.351750000000000007e+00 7.403640000000000221e+00 7.690120000000000289e+00 2.571309999999999985e+00 1.386179999999999968e+00 4.859160000000000146e+00 2.039369999999999905e+00 1.301039999999999974e+00 1.043108999999999931e+01 2.482520000000000060e+00 6.318159999999999776e+00 5.169929999999999914e+00 1.646060000000000079e+00 6.560830000000000162e+00 9.997999999999999332e+00 7.852730000000000210e+00 9.893199999999999772e-01 5.194499999999999673e+00 6.838400000000000034e+00 1.468239999999999990e+00 1.010909000000000013e+01 8.086270000000000735e+00 6.660829999999999806e+00 4.816469999999999807e+00 6.771819999999999951e+00 6.703389999999999738e+00 1.011739000000000033e+01 3.701420000000000154e+00 4.167390000000000150e+00 1.066060000000000008e+00 3.021230000000000082e+00 3.769190000000000040e+00 6.388630000000000031e+00 3.960329999999999906e+00 8.977140000000000342e+00 7.814400000000000235e-01 3.102730000000000210e+00 9.047069999999999723e+00 5.826050000000000395e+00 9.230439999999999756e+00 4.214299999999999713e+00 1.012119999999999909e+00 8.333930000000000504e+00 4.208549999999999791e+00 6.447549999999999670e+00 8.904749999999999943e+00 9.291840000000000543e+00 9.327699999999999880e-01 8.747790000000000177e+00 8.602339999999999876e+00 5.964780000000000193e+00 1.866200000000000081e-01 1.576410000000000089e+00 3.952609999999999957e+00 -6.423999999999999710e-01 1.564070000000000071e+00 9.620810000000000528e+00 2.525800000000000267e-01 6.840440000000000076e+00 3.871939999999999937e+00 -7.772999999999999909e-01 6.590989999999999682e+00 9.201579999999999870e+00 5.720979999999999954e+00 1.769030000000000102e+00 3.906829999999999803e+00 4.673949999999999605e+00 1.729240000000000110e+00 9.423080000000000567e+00 5.783009999999999984e+00 7.046949999999999825e+00 4.008569999999999744e+00 1.380630000000000024e+00 4.183769999999999989e+00 2.148420000000000218e+00 2.419300000000000062e-01 3.990530000000000133e+00 7.398369999999999891e+00 9.221500000000000252e-01 9.552979999999999805e+00 1.416279999999999983e+00 3.012000000000000233e-01 9.580450000000000799e+00 6.901270000000000238e+00 6.166710000000000136e+00 4.413689999999999891e+00 1.567749999999999977e+00 5.648209999999999731e+00 3.959319999999999951e+00 7.343029999999999724e+00 6.139730000000000132e+00 9.552440000000000708e+00 1.637799999999999923e+00 5.514780000000000015e+00 9.430350000000000676e+00 7.237020000000000231e+00 7.878300000000000303e-01 4.214940000000000353e+00 4.550489999999999924e+00 -1.938300000000000023e-01 4.130110000000000170e+00 9.806869999999999976e+00 9.465700000000000225e-01 9.466469999999999274e+00 4.213379999999999903e+00 -6.993800000000000017e-01 9.153669999999999973e+00 9.790860000000000340e+00 5.900540000000000340e+00 4.404889999999999972e+00 4.584760000000000169e+00 4.805880000000000152e+00 4.262640000000000207e+00 9.560950000000000060e+00 6.063699999999999868e+00 9.477259999999999351e+00 4.476519999999999833e+00 4.685050000000000381e+00 9.388279999999999959e+00 9.595399999999999707e+00 6.263800000000000479e-01 1.723579999999999890e+00 1.167769999999999975e+00 -3.436899999999999955e-01 1.612160000000000037e+00 6.977949999999999875e+00 6.407399999999999762e-01 6.877439999999999998e+00 1.292489999999999917e+00 -1.510799999999999921e-01 6.707650000000000112e+00 6.569600000000000328e+00 5.976539999999999964e+00 1.695729999999999960e+00 1.202229999999999910e+00 5.018830000000000346e+00 1.465289999999999981e+00 6.583680000000000199e+00 5.970349999999999824e+00 6.971899999999999764e+00 1.409019999999999939e+00 5.050430000000000419e+00 6.772619999999999862e+00 6.797340000000000160e+00
4.704570000000000363e+00 3.314979999999999816e+00 2.764650000000000052e+00 3.914109999999999978e+00 2.900290000000000035e+00 7.976679999999999993e+00 4.521729999999999805e+00 8.374620000000000175e+00 2.865510000000000002e+00 3.800209999999999866e+00 8.471470000000000056e+00 8.031639999999999446e+00 -4.323199999999999821e-01 3.037900000000000045e+00 2.704689999999999817e+00 -1.199810000000000043e+00 3.188359999999999861e+00 8.090759999999999508e+00 9.872949999999999449e+00 8.448309999999999320e+00 2.653410000000000046e+00 9.073100000000000165e+00 8.400069999999999482e+00 8.022959999999999425e+00 1.788319999999999910e+00 5.012600000000000389e-01 2.923340000000000050e+00 9.519999999999999574e-01 4.104200000000000070e-01 8.577930000000000277e+00 1.798999999999999932e+00 5.884050000000000225e+00 3.221239999999999881e+00 8.634699999999999598e-01 5.986670000000000158e+00 8.416199999999999903e+00 7.326369999999999827e+00 3.404699999999999949e-01 3.124750000000000139e+00 6.175440000000000040e+00 3.006499999999999728e-01 8.269370000000000331e+00 6.844260000000000232e+00 5.758740000000000414e+00 3.134230000000000071e+00 6.004229999999999734e+00 5.859399999999999942e+00 8.372849999999999682e+00 2.191040000000000099e+00 2.757660000000000000e+00 6.468500000000000361e-01 1.427040000000000086e+00 2.609109999999999818e+00 5.884750000000000369e+00 2.332930000000000170e+00 7.828249999999999709e+00 3.747599999999999820e-01 1.539449999999999985e+00 8.204530000000000101e+00 5.743809999999999860e+00 7.679299999999999571e+00 2.545819999999999972e+00 5.394400000000000306e-01 6.901209999999999845e+00 2.497069999999999901e+00 5.908710000000000129e+00 7.299439999999999706e+00 8.158920000000000172e+00 8.117799999999999461e-01 6.489329999999999821e+00 8.031200000000000117e+00 5.689040000000000319e+00 4.187879999999999825e+00 1.770899999999999974e-01 5.377320000000000100e+00 5.226869999999999905e+00 1.122999999999999970e-01 1.042399999999999993e-01 4.542449999999999655e+00 5.405079999999999885e+00 5.512579999999999814e+00 3.503210000000000157e+00 5.310319999999999929e+00 1.056817000000000029e+01 -8.197799999999999532e-01 1.051593000000000089e+01 5.320129999999999804e+00 8.674429999999999197e+00 4.626000000000000251e-02 1.066557000000000066e+01 -8.595599999999999907e-01 5.237930000000000419e+00 5.185859999999999914e+00 8.456179999999999808e+00 5.418890000000000207e+00 1.062426999999999921e+01 3.486530000000000129e+00 4.589710000000000178e+00 3.671839999999999993e+00 2.525770000000000071e+00 4.885819999999999830e+00 8.846349999999999270e+00 3.601700000000000124e+00 9.915900000000000603e+00 3.797800000000000065e+00 2.609669999999999934e+00 1.006832999999999956e+01 8.896549999999999514e+00 8.871669999999999945e+00 4.487110000000000376e+00 3.241750000000000131e+00 7.663579999999999615e+00 4.539990000000000414e+00 8.785819999999999297e+00 8.963509999999999422e+00 9.846450000000000813e+00 3.653449999999999864e+00 7.713569999999999816e+00 9.758029999999999760e+00 9.013389999999999347e+00 3.034180000000000099e+00 2.071839999999999904e+00 2.435919999999999863e+00 2.320660000000000167e+00 1.648439999999999905e+00 7.687899999999999956e+00 3.083899999999999864e+00 7.238179999999999836e+00 2.330509999999999859e+00 2.114799999999999791e+00 7.438539999999999708e+00 7.647429999999999950e+00 8.455959999999999255e+00 1.668299999999999894e+00 2.493160000000000043e+00 7.603410000000000224e+00 1.661929999999999907e+00 7.560319999999999929e+00 8.304690000000000794e+00 7.411690000000000111e+00 2.237150000000000194e+00 7.589649999999999785e+00 6.868199999999999861e+00 7.614760000000000417e+00 2.739970000000000017e+00 1.346340000000000092e+00 5.075059999999999683e+00 1.814340000000000064e+00 1.392030000000000101e+00 1.017407000000000039e+01 2.730980000000000185e+00 6.477319999999999744e+00 5.118999999999999773e+00 1.620239999999999903e+00 6.513099999999999667e+00 1.037406999999999968e+01 8.054100000000000037e+00 1.063730000000000064e+00 5.211890000000000356e+00 7.231840000000000046e+00 1.192350000000000021e+00 1.012881999999999927e+01 8.124800000000000466e+00 6.743520000000000181e+00 4.675069999999999837e+00 6.436550000000000438e+00 6.602579999999999671e+00 1.038846999999999987e+01 4.047649999999999970e+00 4.115520000000000067e+00 1.022070000000000034e+00 3.346909999999999830e+00 3.669249999999999901e+00 6.198000000000000398e+00 4.071380000000000443e+00 8.986620000000000275e+00 8.629999999999999893e-01 3.378429999999999822e+00 9.090529999999999333e+00 6.119069999999999787e+00 9.681869999999999976e+00 3.404889999999999972e+00 5.124699999999999811e-01 8.618420000000000414e+00 3.639339999999999797e+00 6.021359999999999602e+00 9.018950000000000244e+00 9.541729999999999379e+00 1.146700000000000053e+00 8.369899999999999451e+00 9.143689999999999429e+00 6.149569999999999759e+00 3.666200000000000014e-01 1.586160000000000014e+00 3.960409999999999986e+00 -6.897799999999999487e-01 1.501929999999999987e+00 9.478210000000000690e+00 2.698300000000000143e-01 6.856810000000000294e+00 3.747729999999999784e+00 -8.145799999999999708e-01 6.604040000000000354e+00 9.357039999999999580e+00 5.508000000000000007e+00 1.607939999999999925e+00 3.849349999999999827e+00 4.800099999999999589e+00 1.368849999999999900e+00 9.353989999999999583e+00 5.406979999999999897e+00 6.867770000000000152e+00 4.177270000000000039e+00 1.257390000000000008e+00 4.108410000000000117e+00 1.958970000000000100e+00 2.594000000000000195e-01 4.388130000000000308e+00 7.233530000000000015e+00 1.026739999999999986e+00 9.285600000000000520e+00 1.962809999999999944e+00 3.892000000000000320e-02 9.438719999999999999e+00 7.123840000000000394e+00 6.537650000000000183e+00 4.011070000000000135e+00 1.464609999999999967e+00 5.700050000000000061e+00 4.374080000000000190e+00 6.792150000000000354e+00 6.163280000000000314e+00 9.812359999999999971e+00 1.589669999999999916e+00 5.656539999999999679e+00 9.598119999999999763e+00 7.010110000000000063e+00 7.684900000000000064e-01 3.944799999999999862e+00 4.308029999999999582e+00 -4.588200000000000056e-01 4.291660000000000252e+00 9.933139999999999858e+00 9.512399999999999745e-01 9.885139999999999816e+00 4.770889999999999631e+00 -2.970400000000000262e-01 9.312599999999999767e+00 9.693110000000000781e+00 5.970010000000000261e+00 4.215959999999999930e+00 4.145340000000000025e+00 4.891539999999999999e+00 3.959989999999999899e+00 9.593540000000000845e+00 6.129319999999999879e+00 9.606650000000000134e+00 4.494989999999999597e+00 4.667049999999999699e+00 9.391069999999999141e+00 9.884190000000000254e+00 1.009079999999999977e+00 1.247880000000000100e+00 1.297889999999999988e+00 -2.414800000000000002e-01 1.734189999999999898e+00 6.604420000000000179e+00 6.774200000000000221e-01 6.818839999999999790e+00 1.228120000000000100e+00 -1.056999999999999953e-02 6.874380000000000379e+00 6.351329999999999920e+00 5.942429999999999879e+00 1.595460000000000100e+00 1.190099999999999936e+00 5.019840000000000302e+00 1.611879999999999979e+00 6.739679999999999893e+00 5.866439999999999877e+00 6.836599999999999788e+00 1.531169999999999920e+00 4.967920000000000336e+00 7.059110000000000440e+00 6.892310000000000159e+00
4.769459999999999589e+00 3.121739999999999959e+00 2.566559999999999953e+00 4.052389999999999937e+00 3.015810000000000102e+00 7.706970000000000098e+00 4.673009999999999664e+00 8.118999999999999773e+00 2.495389999999999997e+00 3.832190000000000207e+00 8.277309999999999945e+00 7.882590000000000430e+00 9.785360000000000724e+00 3.159079999999999888e+00 2.761969999999999814e+00 -1.127240000000000020e+00 3.110009999999999941e+00 8.030430000000000845e+00 9.554959999999999454e+00 8.264570000000000860e+00 2.734859999999999847e+00 8.924170000000000158e+00 8.233800000000000452e+00 7.937289999999999957e+00 1.761050000000000004e+00 4.638599999999999945e-01 3.187250000000000139e+00 1.163459999999999939e+00 4.032000000000000028e-01 8.291629999999999612e+00 1.689480000000000093e+00 5.555589999999999584e+00 3.172309999999999963e+00 1.042440000000000033e+00 5.548700000000000188e+00 8.459989999999999455e+00 6.869139999999999802e+00 6.101199999999999957e-01 3.173210000000000086e+00 6.111559999999999881e+00 4.943199999999999816e-01 8.321149999999999380e+00 6.851350000000000051e+00 5.595180000000000042e+00 3.225589999999999957e+00 6.431589999999999918e+00 5.525929999999999787e+00 8.227180000000000604e+00 2.251050000000000217e+00 2.607079999999999842e+00 4.703100000000000058e-01 1.479370000000000074e+00 2.751599999999999824e+00 5.929280000000000328e+00 2.270090000000000163e+00 7.900590000000000224e+00 4.703999999999999848e-01 1.078300000000000036e+00 7.968539999999999957e+00 5.678480000000000416e+00 7.438130000000000130e+00 2.567720000000000002e+00 3.733299999999999952e-01 6.532189999999999941e+00 2.612109999999999932e+00 5.805259999999999643e+00 7.362529999999999575e+00 7.799859999999999793e+00 3.886800000000000255e-01 6.387509999999999799e+00 8.052939999999999543e+00 5.604750000000000121e+00 4.187009999999999899e+00 1.926700000000000079e-01 5.079690000000000261e+00 5.209740000000000038e+00 1.532199999999999951e-01 7.100000000000000191e-04 4.155910000000000437e+00 5.463390000000000413e+00 5.182019999999999627e+00 3.505959999999999965e+00 5.042390000000000150e+00 1.051932000000000045e+01 9.336600000000000676e+00 8.934000000000000274e-02 5.107300000000000395e+00 1.249600000000000016e-01 1.045529999999999937e+01 1.949999999999999997e-02 9.228300000000000836e+00 5.409860000000000113e+00 5.516510000000000247e+00 8.553539999999999921e+00 5.241349999999999731e+00 1.058381999999999934e+01 3.491659999999999986e+00 4.581850000000000200e+00 3.275549999999999962e+00 2.707219999999999960e+00 4.671009999999999884e+00 8.514860000000000539e+00 3.534629999999999939e+00 1.006470000000000020e+01 3.448510000000000186e+00 2.669669999999999987e+00 9.755589999999999762e+00 8.662789999999999324e+00 8.600899999999999324e+00 4.560240000000000293e+00 3.478839999999999932e+00 8.199989999999999668e+00 4.663929999999999687e+00 8.749800000000000466e+00 8.649630000000000152e+00 9.823689999999999145e+00 3.227240000000000109e+00 7.755829999999999558e+00 9.824189999999999756e+00 8.599780000000000868e+00 3.060470000000000024e+00 2.001990000000000158e+00 2.319360000000000088e+00 2.429330000000000211e+00 1.872169999999999890e+00 7.437949999999999839e+00 3.013640000000000096e+00 7.117980000000000196e+00 2.535579999999999945e+00 2.100150000000000183e+00 7.302679999999999616e+00 7.884100000000000108e+00 7.981440000000000090e+00 2.086990000000000123e+00 2.491350000000000176e+00 7.337340000000000195e+00 2.046339999999999826e+00 7.856900000000000439e+00 8.041859999999999786e+00 6.929359999999999964e+00 2.178370000000000140e+00 7.312000000000000277e+00 7.152230000000000310e+00 7.568539999999999601e+00 2.535480000000000178e+00 1.101020000000000110e+00 5.036900000000000155e+00 1.698809999999999931e+00 1.055979999999999919e+00 1.036591999999999913e+01 2.539099999999999913e+00 6.210820000000000007e+00 5.037580000000000169e+00 1.719510000000000094e+00 6.206629999999999647e+00 1.029321999999999981e+01 7.613879999999999981e+00 1.326540000000000052e+00 4.943800000000000416e+00 6.941569999999999574e+00 9.269500000000000517e-01 1.022972000000000037e+01 7.823360000000000092e+00 6.411950000000000038e+00 4.977190000000000225e+00 6.515539999999999665e+00 6.377939999999999721e+00 1.006911999999999985e+01 3.989149999999999974e+00 3.763329999999999842e+00 4.428599999999999759e-01 3.315519999999999801e+00 3.645189999999999930e+00 5.795580000000000176e+00 3.938699999999999868e+00 8.967589999999999506e+00 6.300700000000000189e-01 2.722129999999999939e+00 8.933379999999999654e+00 5.802839999999999776e+00 9.056259999999999977e+00 3.729459999999999997e+00 6.481700000000000239e-01 8.480010000000000048e+00 3.923700000000000188e+00 6.283859999999999779e+00 9.156399999999999650e+00 8.962659999999999627e+00 7.822999999999999954e-01 8.166140000000000398e+00 8.867290000000000560e+00 5.612149999999999750e+00 -2.593000000000000166e-02 1.509279999999999955e+00 4.059300000000000352e+00 -5.898099999999999454e-01 1.430150000000000032e+00 9.580819999999999226e+00 8.898000000000000353e-02 7.059450000000000003e+00 4.052999999999999936e+00 -6.596400000000000041e-01 6.768589999999999662e+00 9.284879999999999356e+00 5.240840000000000387e+00 1.665140000000000065e+00 4.203430000000000000e+00 4.459380000000000344e+00 1.496299999999999963e+00 9.415380000000000749e+00 5.340939999999999799e+00 6.926110000000000433e+00 4.130510000000000126e+00 9.724099999999999966e-01 4.162749999999999950e+00 1.835159999999999902e+00 6.091699999999999893e-01 4.182299999999999685e+00 7.105080000000000062e+00 1.247749999999999915e+00 9.224429999999999907e+00 1.996459999999999901e+00 1.510799999999999921e-01 9.424559999999999604e+00 6.774070000000000036e+00 6.448240000000000194e+00 4.078570000000000029e+00 1.493209999999999926e+00 5.833840000000000359e+00 4.005300000000000082e+00 6.981849999999999667e+00 6.302920000000000300e+00 9.408609999999999474e+00 1.566959999999999908e+00 5.390990000000000393e+00 9.291679999999999495e+00 6.851650000000000240e+00 5.824899999999999523e-01 4.087279999999999802e+00 4.552780000000000271e+00 -1.208700000000000052e-01 4.123199999999999754e+00 9.681789999999999452e+00 4.822899999999999965e-01 9.439489999999999270e+00 4.131599999999999717e+00 3.966000000000000081e-02 9.395030000000000214e+00 9.550150000000000361e+00 5.774300000000000210e+00 4.131850000000000023e+00 4.216940000000000133e+00 5.002270000000000216e+00 4.025820000000000398e+00 9.604939999999999145e+00 5.994379999999999598e+00 9.473560000000000869e+00 4.041640000000000121e+00 4.838799999999999990e+00 9.231299999999999173e+00 9.582449999999999690e+00 6.343900000000000095e-01 1.292880000000000029e+00 1.409580000000000055e+00 -1.199699999999999933e-01 1.738019999999999898e+00 6.792480000000000295e+00 7.233800000000000230e-01 6.732120000000000104e+00 1.415149999999999908e+00 -4.394399999999999973e-01 6.945739999999999803e+00 6.822070000000000078e+00 5.687120000000000175e+00 1.480799999999999894e+00 1.391210000000000058e+00 5.013309999999999711e+00 1.569409999999999972e+00 6.866789999999999949e+00 5.774169999999999803e+00 6.472870000000000346e+00 1.525879999999999903e+00 5.142339999999999911e+00 6.739209999999999923e+00 6.842660000000000409e+00
4.799299999999999677e+00 3.077010000000000023e+00 2.585500000000000131e+00 3.842189999999999994e+00 3.121719999999999828e+00 8.039979999999999905e+00 4.498599999999999710e+00 8.156060000000000088e+00 2.536729999999999929e+00 3.796479999999999855e+00 8.414189999999999614e+00 7.723359999999999559e+00 9.821389999999999176e+00 3.222399999999999931e+00 2.579130000000000145e+00 -1.313309999999999977e+00 3.034240000000000048e+00 7.767400000000000304e+00 9.781929999999999126e+00 8.345869999999999678e+00 2.461019999999999985e+00 8.880319999999999325e+00 8.261710000000000775e+00 7.781220000000000248e+00 1.775689999999999991e+00 4.233600000000000141e-01 3.252170000000000005e+00 8.668000000000000149e-01 5.451000000000000290e-01 8.439389999999999503e+00 1.740730000000000111e+00 5.543249999999999567e+00 3.042260000000000186e+00 9.088899999999999757e-01 5.780910000000000437e+00 8.340949999999999420e+00 6.910499999999999865e+00 4.532200000000000117e-01 2.926550000000000207e+00 6.034200000000000230e+00 6.188599999999999657e-01 8.303100000000000591e+00 6.908590000000000231e+00 5.814610000000000056e+00 3.166539999999999910e+00 6.075149999999999828e+00 5.698629999999999640e+00 8.172489999999999810e+00 2.116810000000000080e+00 2.473300000000000054e+00 3.081099999999999950e-01 1.375010000000000066e+00 2.587969999999999882e+00 5.912740000000000329e+00 2.024739999999999984e+00 7.704869999999999663e+00 2.269899999999999973e-01 1.395739999999999981e+00 7.748170000000000002e+00 5.867359999999999687e+00 7.252209999999999823e+00 2.467389999999999972e+00 6.433299999999999574e-01 6.631370000000000431e+00 2.571050000000000058e+00 5.588860000000000383e+00 7.461850000000000094e+00 7.667309999999999626e+00 5.488399999999999945e-01 6.640080000000000204e+00 7.898679999999999701e+00 5.662429999999999630e+00 4.316150000000000375e+00 3.695999999999999980e-02 5.189639999999999809e+00 3.485209999999999919e+00 1.200200000000000017e-01 1.053392000000000017e+01 4.267509999999999692e+00 5.251339999999999897e+00 5.378389999999999560e+00 5.167259999999999742e+00 5.275830000000000020e+00 1.224399999999999933e-01 -6.794700000000000184e-01 2.678000000000000172e-02 5.459399999999999586e+00 -1.624730000000000008e+00 1.042296999999999940e+01 1.034093999999999980e+01 9.311460000000000292e+00 5.238520000000000287e+00 5.153739999999999988e+00 1.012717999999999918e+01 5.060660000000000380e+00 6.886000000000000454e-02 3.520360000000000156e+00 4.502869999999999706e+00 3.376090000000000035e+00 2.456620000000000026e+00 4.397050000000000125e+00 8.745919999999999916e+00 3.382099999999999884e+00 9.576000000000000512e+00 3.526240000000000041e+00 2.654310000000000169e+00 9.868050000000000210e+00 8.501559999999999562e+00 8.774779999999999802e+00 4.793219999999999814e+00 3.300580000000000069e+00 7.827169999999999739e+00 4.506499999999999950e+00 8.532970000000000610e+00 8.809340000000000614e+00 1.008506000000000036e+01 3.418039999999999967e+00 7.665099999999999802e+00 1.000276999999999994e+01 8.531840000000000757e+00 2.992059999999999942e+00 1.591699999999999893e+00 2.181960000000000122e+00 2.177740000000000009e+00 1.895180000000000087e+00 7.711750000000000327e+00 2.917370000000000019e+00 6.900990000000000180e+00 2.214220000000000077e+00 1.996539999999999981e+00 7.336649999999999672e+00 7.938880000000000159e+00 7.934949999999999726e+00 2.247199999999999864e+00 2.629919999999999813e+00 7.238550000000000040e+00 2.046860000000000124e+00 7.656570000000000320e+00 8.222039999999999793e+00 7.225570000000000270e+00 2.422950000000000159e+00 7.197820000000000107e+00 7.157709999999999795e+00 7.565920000000000201e+00 2.607380000000000031e+00 1.223360000000000003e+00 4.939350000000000129e+00 1.467060000000000031e+00 8.189899999999999958e-01 1.027013999999999960e+01 2.599120000000000097e+00 6.310599999999999987e+00 5.347059999999999924e+00 1.476329999999999920e+00 6.029200000000000337e+00 1.041694000000000031e+01 7.774890000000000079e+00 1.234730000000000105e+00 5.039930000000000021e+00 6.537950000000000372e+00 9.175299999999999567e-01 1.041733999999999938e+01 7.768790000000000084e+00 6.501800000000000246e+00 4.802330000000000432e+00 6.819309999999999761e+00 6.388569999999999638e+00 1.022503999999999991e+01 4.264639999999999986e+00 3.341709999999999958e+00 6.620899999999999563e-01 3.074289999999999967e+00 3.681649999999999867e+00 6.192840000000000344e+00 4.120759999999999756e+00 8.988599999999999923e+00 6.777400000000000091e-01 3.083320000000000061e+00 9.021420000000000883e+00 6.067190000000000083e+00 8.778230000000000643e+00 3.798799999999999955e+00 7.524800000000000377e-01 8.175530000000000186e+00 3.871350000000000069e+00 6.034839999999999982e+00 9.285420000000000229e+00 8.809770000000000323e+00 6.470799999999999885e-01 8.118579999999999686e+00 9.060389999999999944e+00 5.814070000000000071e+00 1.708199999999999996e-01 1.793609999999999927e+00 4.273500000000000298e+00 -7.478000000000000203e-01 1.328640000000000043e+00 9.387879999999999114e+00 3.817599999999999882e-01 6.906039999999999957e+00 4.049780000000000157e+00 -8.332100000000000062e-01 6.660099999999999909e+00 9.221849999999999881e+00 5.292169999999999597e+00 1.434830000000000050e+00 3.891840000000000188e+00 4.365730000000000111e+00 1.683720000000000105e+00 9.417500000000000426e+00 5.417500000000000426e+00 6.862989999999999924e+00 4.094280000000000364e+00 1.194679999999999964e+00 4.112300000000000288e+00 1.514739999999999975e+00 2.772899999999999809e-01 4.240890000000000271e+00 6.986229999999999940e+00 1.138430000000000053e+00 9.798989999999999867e+00 1.514569999999999972e+00 2.440100000000000047e-01 9.352890000000000370e+00 6.953500000000000014e+00 6.303910000000000124e+00 4.238179999999999836e+00 1.606309999999999905e+00 5.504739999999999966e+00 4.169139999999999624e+00 6.635089999999999932e+00 6.444250000000000256e+00 9.223480000000000345e+00 1.911759999999999904e+00 5.362269999999999648e+00 9.379839999999999733e+00 6.946159999999999890e+00 6.177000000000000268e-01 4.160529999999999617e+00 4.233570000000000277e+00 -4.278000000000000136e-01 3.875939999999999941e+00 9.477449999999999264e+00 7.245500000000000274e-01 9.571189999999999642e+00 4.380279999999999951e+00 -3.243500000000000272e-01 9.101029999999999731e+00 9.207499999999999574e+00 5.844699999999999562e+00 4.067190000000000083e+00 4.141449999999999854e+00 4.834959999999999702e+00 4.192960000000000242e+00 9.620589999999999975e+00 5.943769999999999776e+00 9.324049999999999727e+00 4.257399999999999629e+00 4.797109999999999985e+00 9.153740000000000876e+00 9.635460000000000136e+00 3.617199999999999860e-01 1.805139999999999967e+00 1.241460000000000008e+00 -9.028999999999999526e-02 1.402640000000000109e+00 6.813850000000000406e+00 4.676400000000000001e-01 6.813869999999999649e+00 1.303970000000000073e+00 -2.113299999999999901e-01 6.542779999999999596e+00 6.563839999999999897e+00 5.759750000000000369e+00 1.374730000000000008e+00 1.390730000000000022e+00 4.931210000000000093e+00 1.614519999999999955e+00 6.616789999999999949e+00 5.891569999999999752e+00 6.785989999999999966e+00 1.700509999999999966e+00 4.857120000000000104e+00 6.818520000000000358e+00 6.786330000000000418e+00