2.520729999999999915e+00 1.454499999999999960e-01 2.687940000000000218e+00 2.781250000000000000e+00 1.026026000000000060e+01 8.060769999999999769e+00 2.625010000000000066e+00 5.089579999999999771e+00 2.618320000000000203e+00 2.858550000000000146e+00 5.148559999999999803e+00 7.959730000000000416e+00 9.915580000000000283e+00 2.576280000000000125e+00 2.492729999999999890e+00 4.361999999999999905e-02 2.780749999999999833e+00 7.544920000000000293e+00 9.356000000000000427e-02 8.005129999999999413e+00 2.208720000000000017e+00 9.728000000000000536e-02 7.706550000000000011e+00 7.804240000000000066e+00 7.895929999999999893e+00 2.403119999999999923e+00 5.038470000000000226e+00 7.731460000000000221e+00 2.444469999999999921e+00 1.042151999999999923e+01 7.664959999999999773e+00 7.416669999999999874e+00 5.216169999999999973e+00 7.829270000000000174e+00 7.719800000000000217e+00 9.956229999999999691e+00 5.138889999999999958e+00 5.007690000000000197e+00 5.095979999999999954e+00 5.298700000000000188e+00 4.929369999999999585e+00 1.038672000000000040e+01 5.263490000000000002e+00 1.009329999999999927e+01 5.289830000000000254e+00 5.073590000000000266e+00 1.004326000000000008e+01 7.037000000000000199e-02 5.254920000000000258e+00 2.263869999999999827e+00 2.482549999999999812e+00 4.936209999999999987e+00 2.463670000000000027e+00 7.568660000000000387e+00 5.110229999999999606e+00 7.403400000000000425e+00 2.277600000000000069e+00 5.228449999999999598e+00 7.642280000000000406e+00 7.462650000000000006e+00 7.907939999999999969e+00 5.031520000000000437e+00 2.348069999999999879e+00 7.554979999999999585e+00 5.016960000000000086e+00 7.672519999999999563e+00 7.725839999999999819e+00 1.006439999999999912e+01 2.567140000000000200e+00 7.642179999999999751e+00 -7.389999999999999868e-03 7.877449999999999619e+00 1.011991000000000085e+01 1.023799999999999955e+01 5.378199999999999648e+00 1.141000000000000000e-02 4.541100000000000136e-01 1.050371999999999950e+01 9.023000000000000465e-02 5.193120000000000402e+00 5.161979999999999791e+00 9.987130000000000507e+00 5.007620000000000182e+00 1.049032000000000053e+01 2.710020000000000095e+00 2.480669999999999931e+00 4.930060000000000109e+00 3.038530000000000175e+00 2.701929999999999943e+00 1.046452000000000027e+01 2.828040000000000109e+00 7.889120000000000132e+00 4.977839999999999598e+00 2.601440000000000197e+00 7.750890000000000057e+00 1.032781999999999911e+01 8.710499999999999687e+00 3.673439999999999817e+00 1.005130000000000079e+00 8.913600000000000634e+00 3.790480000000000071e+00 6.374539999999999651e+00 8.536569999999999325e+00 8.784499999999999531e+00 1.314009999999999900e+00 8.911569999999999325e+00 8.782640000000000668e+00 6.357700000000000351e+00 4.039320000000000022e+00 1.149599999999999955e+00 4.287300000000000111e+00 4.232770000000000366e+00 1.154349999999999987e+00 9.380699999999999150e+00 4.033719999999999750e+00 6.202340000000000408e+00 3.774239999999999817e+00 4.081809999999999938e+00 6.421020000000000394e+00 8.914880000000000138e+00 4.176389999999999603e+00 3.636519999999999975e+00 3.633789999999999853e+00 4.150610000000000355e+00 3.759720000000000173e+00 9.076370000000000715e+00 4.070890000000000342e+00 9.029510000000000147e+00 3.762480000000000047e+00 3.979800000000000004e+00 8.846339999999999648e+00 9.001559999999999562e+00 8.525009999999999977e+00 1.333409999999999984e+00 1.548459999999999948e+00 8.363590000000000302e+00 1.129299999999999971e+00 6.557739999999999903e+00 8.463860000000000383e+00 6.507460000000000022e+00 8.134299999999999864e-01 8.723330000000000695e+00 6.346129999999999605e+00 6.482529999999999681e+00 9.061719999999999331e+00 3.792710000000000026e+00 3.846260000000000012e+00 9.174839999999999662e+00 3.654669999999999863e+00 9.109519999999999840e+00 8.865180000000000504e+00 8.923040000000000305e+00 3.863420000000000076e+00 9.000220000000000553e+00 9.169999999999999929e+00 9.349059999999999704e+00 3.841870000000000118e+00 1.176940000000000097e+00 1.377529999999999921e+00 3.493860000000000188e+00 1.524040000000000061e+00 6.645629999999999704e+00 3.619909999999999961e+00 6.583129999999999704e+00 1.182060000000000111e+00 3.774369999999999781e+00 6.710840000000000138e+00 6.218580000000000219e+00 1.849569999999999936e+00 1.858729999999999993e+00 3.319290000000000074e+00 1.726290000000000102e+00 1.895529999999999937e+00 8.649820000000000064e+00 1.731929999999999970e+00 7.040659999999999918e+00 3.262999999999999901e+00 1.802659999999999929e+00 6.812590000000000146e+00 8.537610000000000809e+00 6.027860000000000440e+00 4.226599999999999802e-01 2.108460000000000001e+00 5.834749999999999659e+00 6.645600000000000396e-01 7.397120000000000140e+00 6.127480000000000260e+00 5.637349999999999639e+00 1.655450000000000088e+00 5.957349999999999923e+00 5.968790000000000262e+00 6.584590000000000387e+00 6.729510000000000325e+00 8.634100000000000108e-01 4.349660000000000082e+00 7.074869999999999770e+00 5.244900000000000118e-01 9.812110000000000554e+00 6.849039999999999573e+00 5.801709999999999923e+00 4.358299999999999841e+00 6.803930000000000256e+00 6.021060000000000301e+00 9.360290000000000887e+00 5.910120000000000040e+00 2.867430000000000145e+00 6.846400000000000263e-01 6.238059999999999938e+00 3.423410000000000064e+00 6.211669999999999803e+00 6.218099999999999739e+00 8.176399999999999224e+00 4.543800000000000061e-01 9.500840000000000174e+00 1.426120000000000054e+00 4.167220000000000368e+00 9.220299999999999940e+00 1.153729999999999922e+00 8.853300000000000836e+00 9.122799999999999798e+00 6.419559999999999711e+00 3.648690000000000211e+00 9.406499999999999417e+00 6.338899999999999757e+00 9.136070000000000135e+00 6.978110000000000035e+00 3.179320000000000146e+00 3.180709999999999926e+00 6.563130000000000130e+00 3.549040000000000195e+00 8.797129999999999228e+00 6.525260000000000282e+00 8.228139999999999787e+00 3.577249999999999819e+00 6.976989999999999803e+00 8.188639999999999475e+00 7.998509999999999565e+00 1.023649999999999949e+00 2.013310000000000155e+00 6.725999999999999757e-01 8.924499999999999655e-01 2.128919999999999924e+00 5.756470000000000198e+00 7.076599999999999557e-01 7.251019999999999577e+00 4.516600000000000059e-01 1.148579999999999934e+00 7.203430000000000000e+00 5.938729999999999620e+00 1.712320000000000064e+00 4.207970000000000432e+00 4.384960000000000413e+00 1.780690000000000106e+00 4.540919999999999845e+00 9.711040000000000560e+00 1.574500000000000011e+00 9.507550000000000168e+00 4.473849999999999660e+00 1.652020000000000044e+00 9.562910000000000466e+00 9.774089999999999279e+00 5.264400000000000190e-01 4.658940000000000303e+00 1.767709999999999892e+00 9.986199999999999521e-01 4.750779999999999781e+00 6.922279999999999767e+00 6.016399999999999526e-01 9.960069999999999979e+00 1.785949999999999926e+00 9.379999999999999449e-01 9.740700000000000358e+00 7.209459999999999980e+00 3.626129999999999853e+00 4.105089999999999684e+00 1.112659999999999982e+00 3.681869999999999976e+00 4.043590000000000018e+00 6.429669999999999774e+00 3.842210000000000125e+00 8.968579999999999330e+00 1.110740000000000061e+00 3.826319999999999943e+00 9.455799999999999983e+00 6.497150000000000425e+00
2.707359999999999989e+00 1.021513000000000027e+01 2.587099999999999955e+00 2.822509999999999852e+00 1.016722999999999999e+01 7.924870000000000303e+00 2.523600000000000065e+00 5.200800000000000090e+00 2.378150000000000208e+00 2.849790000000000045e+00 5.008560000000000123e+00 8.043319999999999581e+00 1.002712999999999965e+01 2.595130000000000159e+00 2.243370000000000086e+00 1.012208000000000041e+01 2.724849999999999994e+00 7.498949999999999783e+00 1.011347999999999914e+01 7.681219999999999715e+00 2.348100000000000076e+00 1.009657999999999944e+01 7.744299999999999962e+00 7.453640000000000043e+00 7.769429999999999836e+00 2.528599999999999959e+00 4.918669999999999654e+00 7.802579999999999849e+00 2.321060000000000123e+00 1.019478999999999935e+01 7.797170000000000378e+00 7.495829999999999771e+00 4.954769999999999897e+00 7.826649999999999885e+00 7.596510000000000318e+00 1.045618999999999943e+01 4.971470000000000056e+00 5.076410000000000089e+00 5.266670000000000407e+00 5.102140000000000342e+00 5.045410000000000394e+00 2.929000000000000006e-02 4.945780000000000065e+00 1.021213999999999977e+01 5.515609999999999680e+00 5.184269999999999712e+00 1.001539000000000001e+01 1.477300000000000002e-01 4.977310000000000123e+00 2.484900000000000109e+00 2.159079999999999888e+00 5.099330000000000140e+00 2.619209999999999816e+00 7.571930000000000049e+00 5.130449999999999733e+00 7.458980000000000388e+00 2.275650000000000173e+00 5.178539999999999921e+00 7.438769999999999882e+00 7.765019999999999811e+00 7.726720000000000255e+00 5.071589999999999598e+00 2.880409999999999915e+00 7.932990000000000208e+00 5.001039999999999708e+00 7.957329999999999792e+00 7.702779999999999738e+00 1.183000000000000024e-02 2.865580000000000016e+00 7.803650000000000198e+00 7.640000000000000090e-03 7.762279999999999625e+00 1.075399999999999967e-01 1.783099999999999963e-01 5.237759999999999749e+00 1.003768999999999956e+01 1.955000000000000140e-02 1.047428999999999988e+01 2.777700000000000169e-01 5.503510000000000346e+00 5.218340000000000423e+00 1.013831000000000060e+01 5.084209999999999674e+00 5.462999999999999801e-02 2.737289999999999779e+00 2.620820000000000149e+00 4.974569999999999936e+00 2.761760000000000215e+00 2.541780000000000150e+00 1.011448999999999998e+01 2.923789999999999889e+00 7.723390000000000200e+00 4.892459999999999809e+00 2.789099999999999913e+00 7.647249999999999659e+00 1.019538999999999973e+01 8.523369999999999891e+00 3.701869999999999994e+00 1.094039999999999901e+00 8.770369999999999777e+00 3.739160000000000039e+00 6.179020000000000401e+00 8.827099999999999724e+00 8.880129999999999413e+00 9.295400000000000329e-01 8.885820000000000718e+00 8.935650000000000759e+00 6.134220000000000006e+00 4.132310000000000372e+00 1.061760000000000037e+00 3.750620000000000065e+00 4.000359999999999694e+00 1.195249999999999924e+00 8.989190000000000680e+00 4.301280000000000214e+00 6.081179999999999808e+00 3.729470000000000063e+00 4.084030000000000271e+00 3.772710000000000008e+00 3.858480000000000132e+00 4.129369999999999763e+00 3.660569999999999879e+00 9.031069999999999709e+00 4.156240000000000379e+00 8.821630000000000749e+00 3.594129999999999825e+00 4.406869999999999621e+00 8.828730000000000189e+00 9.000560000000000116e+00 8.766949999999999577e+00 1.159070000000000045e+00 1.276810000000000000e+00 8.880760000000000431e+00 1.272569999999999979e+00 6.393340000000000245e+00 8.944340000000000401e+00 6.398299999999999876e+00 1.223729999999999984e+00 8.770770000000000621e+00 6.450709999999999944e+00 6.647979999999999556e+00 8.956500000000000128e+00 3.767879999999999896e+00 3.813520000000000021e+00 9.314730000000000842e+00 3.768089999999999939e+00 9.300240000000000506e+00 9.270659999999999457e+00 9.031079999999999330e+00 3.747529999999999806e+00 9.291100000000000136e+00 9.371679999999999566e+00 8.890150000000000219e+00 3.741249999999999964e+00 1.299830000000000041e+00 9.709799999999999542e-01 3.842060000000000031e+00 1.443729999999999958e+00 6.418650000000000411e+00 3.598539999999999850e+00 6.481279999999999930e+00 8.693300000000000471e-01 3.848390000000000200e+00 6.441300000000000026e+00 6.327560000000000073e+00 1.656719999999999970e+00 1.822990000000000110e+00 3.068919999999999870e+00 1.720660000000000078e+00 2.792710000000000026e+00 8.323130000000000805e+00 1.883860000000000090e+00 6.999550000000000161e+00 3.166310000000000180e+00 1.991780000000000106e+00 7.267079999999999984e+00 8.352890000000000370e+00 6.183430000000000426e+00 5.955599999999999783e-01 1.773500000000000076e+00 5.923879999999999590e+00 8.001099999999999879e-01 7.013620000000000410e+00 6.002279999999999838e+00 5.345360000000000333e+00 1.875150000000000095e+00 6.097599999999999909e+00 5.566360000000000419e+00 7.310760000000000147e+00 6.883250000000000313e+00 2.310999999999999999e-01 4.503790000000000404e+00 6.742939999999999934e+00 3.663899999999999935e-01 9.575609999999999289e+00 6.952989999999999782e+00 5.730949999999999989e+00 4.799260000000000304e+00 6.845150000000000290e+00 5.612390000000000434e+00 9.809279999999999333e+00 6.021379999999999733e+00 2.978790000000000049e+00 1.910100000000000131e-01 5.970399999999999707e+00 3.029669999999999863e+00 5.802340000000000053e+00 6.167620000000000324e+00 8.011860000000000426e+00 6.959300000000000486e-01 6.088820000000000121e+00 8.107969999999999899e+00 5.981279999999999930e+00 9.008539999999999992e+00 1.414139999999999953e+00 3.587959999999999816e+00 8.996489999999999654e+00 1.401119999999999921e+00 8.929719999999999658e+00 9.307240000000000180e+00 6.432789999999999786e+00 3.861979999999999968e+00 9.252869999999999706e+00 6.493219999999999992e+00 9.127829999999999444e+00 6.602020000000000444e+00 3.282080000000000108e+00 3.283139999999999947e+00 7.266869999999999941e+00 2.915049999999999919e+00 8.260410000000000252e+00 6.997779999999999667e+00 7.748730000000000118e+00 3.123810000000000198e+00 6.969820000000000348e+00 8.043879999999999697e+00 8.628000000000000114e+00 8.934800000000000519e-01 2.134799999999999809e+00 3.054999999999999938e-01 1.096700000000000008e+00 2.023470000000000102e+00 5.741620000000000168e+00 9.061900000000000510e-01 7.145529999999999937e+00 6.063100000000000156e-01 1.304810000000000025e+00 7.237219999999999764e+00 5.908680000000000376e+00 1.525500000000000078e+00 4.425410000000000288e+00 4.179870000000000196e+00 1.957670000000000021e+00 4.752959999999999852e+00 9.966499999999999915e+00 1.814869999999999983e+00 9.650339999999999918e+00 4.353790000000000049e+00 1.913189999999999946e+00 9.850920000000000343e+00 9.735569999999999169e+00 7.369499999999999940e-01 4.597199999999999953e+00 1.883699999999999930e+00 1.119930000000000092e+00 4.756980000000000430e+00 7.036520000000000330e+00 8.161699999999999511e-01 9.674620000000000886e+00 1.903450000000000086e+00 9.508900000000000130e-01 1.002732999999999919e+01 7.116220000000000212e+00 3.751720000000000166e+00 3.755399999999999849e+00 1.286079999999999890e+00 3.633020000000000138e+00 3.981100000000000083e+00 6.592730000000000423e+00 3.795150000000000023e+00 8.948890000000000455e+00 1.143860000000000099e+00 3.599990000000000023e+00 9.104870000000000019e+00 6.368970000000000020e+00
2.666959999999999997e+00 9.990030000000000854e+00 2.482880000000000198e+00 2.670819999999999972e+00 9.890610000000000568e+00 7.852339999999999876e+00 2.788139999999999841e+00 5.037079999999999558e+00 2.774560000000000137e+00 2.594910000000000050e+00 5.254340000000000011e+00 7.771510000000000140e+00 1.196300000000000002e-01 2.601770000000000138e+00 2.417699999999999960e+00 9.947020000000000195e+00 2.694399999999999906e+00 7.464209999999999567e+00 1.910499999999999976e-01 7.603419999999999845e+00 2.119019999999999904e+00 9.999760000000000204e+00 7.577399999999999913e+00 7.400170000000000137e+00 7.817730000000000068e+00 2.395700000000000163e+00 4.878849999999999909e+00 7.492759999999999643e+00 2.412900000000000045e+00 1.017611999999999917e+01 7.653290000000000148e+00 7.502819999999999823e+00 4.789780000000000371e+00 7.616469999999999629e+00 7.473309999999999675e+00 1.011932000000000009e+01 5.008359999999999701e+00 4.980470000000000397e+00 5.270579999999999821e+00 4.936819999999999986e+00 4.924760000000000026e+00 6.718000000000000360e-02 4.974149999999999849e+00 9.957169999999999632e+00 5.326159999999999783e+00 4.870669999999999611e+00 1.010688000000000031e+01 1.027832000000000079e+01 4.947720000000000340e+00 2.348149999999999959e+00 2.374010000000000176e+00 5.019980000000000331e+00 2.604659999999999975e+00 7.538079999999999892e+00 4.934520000000000017e+00 7.424649999999999750e+00 2.250399999999999956e+00 5.131179999999999630e+00 7.410750000000000171e+00 7.520349999999999646e+00 7.673180000000000334e+00 5.128479999999999706e+00 2.551689999999999792e+00 7.784370000000000012e+00 4.866119999999999557e+00 7.925390000000000157e+00 7.814460000000000406e+00 8.190000000000000058e-02 2.605770000000000142e+00 7.637629999999999697e+00 1.005733000000000033e+01 7.745580000000000354e+00 9.889000000000000568e-02 1.114099999999999951e-01 5.249100000000000321e+00 4.982999999999999929e-02 1.975600000000000134e-01 1.030972000000000044e+01 1.099999999999999936e-02 5.211299999999999599e+00 5.261510000000000353e+00 1.226700000000000013e-01 5.052439999999999820e+00 1.039362000000000030e+01 2.771279999999999966e+00 2.492150000000000087e+00 4.917390000000000150e+00 2.691539999999999822e+00 2.673109999999999875e+00 1.005892000000000053e+01 2.781660000000000021e+00 7.746369999999999756e+00 4.830440000000000289e+00 2.688600000000000101e+00 7.496760000000000090e+00 1.003641999999999967e+01 8.467990000000000350e+00 3.781579999999999941e+00 1.223999999999999977e+00 8.616680000000000561e+00 3.622339999999999893e+00 6.468309999999999782e+00 8.509710000000000107e+00 8.898939999999999628e+00 9.911699999999999955e-01 8.573489999999999611e+00 8.791219999999999146e+00 6.179929999999999701e+00 4.095500000000000362e+00 1.157259999999999955e+00 3.875570000000000181e+00 4.484580000000000233e+00 1.423200000000000021e+00 9.051650000000000418e+00 4.299529999999999852e+00 6.182389999999999830e+00 3.823469999999999924e+00 4.020739999999999981e+00 3.686770000000000103e+00 3.917139999999999844e+00 4.096589999999999954e+00 3.716190000000000104e+00 8.931160000000000210e+00 4.103369999999999962e+00 8.852370000000000516e+00 3.716419999999999835e+00 4.135440000000000005e+00 8.676920000000000854e+00 8.800359999999999516e+00 8.812659999999999272e+00 1.292319999999999913e+00 1.347220000000000084e+00 8.713760000000000616e+00 1.213470000000000049e+00 6.465069999999999872e+00 8.830460000000000420e+00 6.294850000000000279e+00 1.146239999999999926e+00 8.612769999999999371e+00 6.513329999999999842e+00 6.552109999999999879e+00 8.957470000000000709e+00 3.849019999999999886e+00 3.845419999999999838e+00 8.964499999999999247e+00 3.754350000000000076e+00 9.065530000000000754e+00 8.840529999999999333e+00 8.846399999999999153e+00 3.595579999999999998e+00 9.228970000000000340e+00 8.732450000000000045e+00 9.013989999999999725e+00 3.644670000000000076e+00 1.345069999999999988e+00 1.042569999999999997e+00 3.403200000000000003e+00 1.166530000000000067e+00 6.311930000000000263e+00 3.612890000000000157e+00 6.214550000000000018e+00 7.730000000000000204e-01 3.729309999999999903e+00 6.429170000000000051e+00 6.203170000000000073e+00 2.037380000000000191e+00 1.834300000000000042e+00 3.153399999999999981e+00 1.872679999999999900e+00 1.839339999999999975e+00 8.146979999999999222e+00 1.934530000000000083e+00 6.938089999999999868e+00 3.048729999999999940e+00 1.915340000000000042e+00 7.118680000000000341e+00 8.203720000000000567e+00 6.044660000000000366e+00 4.758700000000000152e-01 1.889359999999999928e+00 5.868549999999999933e+00 5.881100000000000216e-01 7.255849999999999689e+00 5.804890000000000327e+00 5.466420000000000279e+00 1.690909999999999913e+00 5.993979999999999642e+00 5.468759999999999621e+00 7.102380000000000138e+00 6.985430000000000028e+00 4.330499999999999905e-01 4.628910000000000302e+00 6.914170000000000371e+00 3.305400000000000005e-01 9.711719999999999686e+00 6.709340000000000082e+00 5.495339999999999669e+00 4.467900000000000205e+00 6.774490000000000123e+00 5.228040000000000020e+00 9.763270000000000337e+00 5.883729999999999905e+00 2.979389999999999983e+00 4.983299999999999952e-01 5.875259999999999927e+00 2.914600000000000080e+00 5.663750000000000284e+00 5.658680000000000376e+00 7.934809999999999697e+00 2.576800000000000201e-01 5.924479999999999968e+00 7.886840000000000295e+00 5.656109999999999971e+00 9.256579999999999586e+00 1.278469999999999995e+00 3.774529999999999941e+00 9.181540000000000035e+00 1.305279999999999996e+00 8.912770000000000081e+00 9.151980000000000004e+00 6.499550000000000161e+00 3.711180000000000145e+00 9.310760000000000147e+00 6.301700000000000301e+00 8.959860000000000824e+00 6.869270000000000209e+00 2.712229999999999919e+00 3.039410000000000167e+00 6.726490000000000080e+00 3.073199999999999932e+00 8.204459999999999198e+00 6.673099999999999810e+00 7.739309999999999690e+00 2.952479999999999993e+00 6.820490000000000386e+00 7.920510000000000161e+00 8.344060000000000699e+00 1.138579999999999925e+00 1.818750000000000089e+00 3.647699999999999831e-01 8.754499999999999504e-01 1.916160000000000085e+00 5.720979999999999954e+00 1.044049999999999923e+00 6.881280000000000285e+00 4.161799999999999944e-01 9.523599999999999843e-01 7.112580000000000346e+00 5.690889999999999560e+00 1.668469999999999898e+00 4.402260000000000062e+00 4.615929999999999644e+00 1.725219999999999976e+00 4.423440000000000261e+00 9.565429999999999211e+00 1.761859999999999982e+00 9.348770000000000024e+00 4.531869999999999621e+00 1.818470000000000031e+00 9.362569999999999837e+00 9.607469999999999288e+00 8.002200000000000424e-01 4.545550000000000423e+00 2.031769999999999854e+00 8.119300000000000406e-01 4.553390000000000271e+00 7.056949999999999612e+00 9.908099999999999685e-01 9.448819999999999553e+00 1.842039999999999900e+00 9.084200000000000053e-01 9.599890000000000256e+00 7.028629999999999711e+00 3.563940000000000108e+00 3.770420000000000105e+00 1.374989999999999934e+00 3.391980000000000217e+00 3.728209999999999802e+00 6.589859999999999829e+00 3.547219999999999818e+00 8.815210000000000434e+00 1.229780000000000095e+00 3.720289999999999875e+00 8.912879999999999470e+00 6.464170000000000194e+00
2.504649999999999821e+00 4.189899999999999736e-01 2.271539999999999893e+00 2.802280000000000104e+00 1.441900000000000126e-01 7.754950000000000010e+00 2.787009999999999987e+00 5.104440000000000310e+00 2.586720000000000130e+00 2.512710000000000221e+00 5.117569999999999730e+00 7.985050000000000203e+00 1.003139999999999965e+01 2.498429999999999929e+00 2.516370000000000218e+00 1.017426000000000030e+01 2.727160000000000029e+00 7.706240000000000201e+00 3.479099999999999970e-01 7.628659999999999997e+00 2.342589999999999950e+00 1.018515999999999977e+01 7.583059999999999690e+00 7.767330000000000290e+00 7.721610000000000085e+00 2.712009999999999810e+00 5.244049999999999656e+00 7.929660000000000153e+00 2.448209999999999997e+00 1.043249999999999922e+01 7.789830000000000254e+00 7.801569999999999894e+00 5.041699999999999626e+00 7.943710000000000271e+00 7.516060000000000407e+00 1.048770000000000024e+01 5.232800000000000118e+00 5.175200000000000244e+00 5.263910000000000089e+00 5.077639999999999709e+00 5.067639999999999922e+00 1.461800000000000044e-01 5.202429999999999666e+00 1.024965000000000082e+01 5.206599999999999895e+00 5.424839999999999662e+00 1.017145000000000010e+01 5.940000000000000141e-02 5.264680000000000248e+00 2.241849999999999898e+00 2.440259999999999874e+00 5.041100000000000136e+00 2.596089999999999787e+00 7.800080000000000346e+00 5.070750000000000313e+00 8.226100000000000634e+00 2.322719999999999896e+00 4.974420000000000286e+00 7.815520000000000245e+00 7.789530000000000065e+00 7.711470000000000269e+00 5.366480000000000139e+00 2.770939999999999959e+00 7.670270000000000366e+00 5.117280000000000051e+00 7.976040000000000241e+00 8.018330000000000624e+00 1.004620000000000068e+01 2.750830000000000108e+00 7.780759999999999899e+00 1.025084999999999980e+01 7.906749999999999723e+00 1.619400000000000006e-01 1.013795000000000002e+01 5.104420000000000179e+00 -1.460999999999999972e-02 1.002913000000000032e+01 1.061550000000000082e+01 1.021756000000000064e+01 5.105830000000000091e+00 5.283140000000000391e+00 1.023046000000000078e+01 4.958739999999999704e+00 1.359700000000000075e-01 2.601809999999999956e+00 2.752359999999999918e+00 4.938030000000000364e+00 2.869460000000000122e+00 2.536989999999999856e+00 1.033239999999999981e+01 2.753249999999999975e+00 7.690089999999999648e+00 4.993350000000000399e+00 2.777709999999999901e+00 7.923919999999999852e+00 1.011950000000000038e+01 8.816399999999999793e+00 3.810589999999999922e+00 1.289230000000000098e+00 8.607459999999999667e+00 3.790810000000000013e+00 6.774899999999999700e+00 8.800879999999999370e+00 9.044869999999999521e+00 1.210909999999999931e+00 8.657909999999999329e+00 9.149240000000000705e+00 6.367510000000000225e+00 4.089290000000000092e+00 1.352500000000000036e+00 3.572579999999999867e+00 4.378359999999999808e+00 1.181130000000000013e+00 9.095560000000000755e+00 4.106799999999999784e+00 6.261040000000000383e+00 4.124170000000000336e+00 4.070700000000000429e+00 6.254990000000000272e+00 9.201800000000000423e+00 4.177559999999999718e+00 3.860370000000000079e+00 3.980010000000000048e+00 4.287620000000000431e+00 3.723059999999999814e+00 9.303340000000000387e+00 4.207419999999999938e+00 9.090139999999999887e+00 3.932620000000000005e+00 4.305729999999999613e+00 9.217919999999999447e+00 9.082819999999999894e+00 9.185180000000000788e+00 1.349709999999999965e+00 9.529100000000000348e-01 9.026339999999999364e+00 1.443980000000000041e+00 6.122359999999999580e+00 8.864319999999999311e+00 6.467380000000000351e+00 1.158809999999999896e+00 8.434570000000000789e+00 6.371649999999999814e+00 6.634999999999999787e+00 9.102249999999999730e+00 3.788060000000000205e+00 4.300500000000000433e+00 9.357179999999999609e+00 3.854779999999999873e+00 9.329969999999999430e+00 9.324320000000000164e+00 8.796269999999999811e+00 3.969469999999999832e+00 9.146819999999999951e+00 8.967700000000000671e+00 9.149820000000000064e+00 3.890680000000000138e+00 1.505160000000000053e+00 9.830299999999999594e-01 3.909159999999999968e+00 1.334740000000000038e+00 6.178899999999999615e+00 3.864069999999999894e+00 6.510110000000000063e+00 1.310340000000000060e+00 3.675129999999999786e+00 6.587989999999999569e+00 6.709480000000000111e+00 1.828030000000000044e+00 2.118250000000000188e+00 2.836240000000000094e+00 2.124730000000000008e+00 1.906379999999999963e+00 8.516880000000000450e+00 2.085160000000000124e+00 7.104580000000000339e+00 3.204450000000000021e+00 1.892220000000000013e+00 7.036859999999999893e+00 8.647740000000000649e+00 6.343670000000000364e+00 2.662200000000000122e-01 1.861369999999999969e+00 6.297200000000000131e+00 9.301899999999999613e-01 6.841870000000000118e+00 6.537429999999999630e+00 6.018860000000000099e+00 1.467770000000000019e+00 6.230400000000000382e+00 8.731820000000000803e+00 5.950479999999999769e+00 6.624139999999999695e+00 1.188460000000000072e+00 4.376260000000000261e+00 6.985680000000000334e+00 2.511399999999999744e-01 9.667220000000000368e+00 6.864939999999999820e+00 5.977229999999999599e+00 4.468180000000000263e+00 7.111749999999999794e+00 5.907709999999999795e+00 9.842890000000000583e+00 6.311209999999999987e+00 3.118590000000000195e+00 3.900100000000000233e-01 6.040090000000000181e+00 3.329009999999999803e+00 6.048230000000000217e+00 6.327639999999999709e+00 8.405329999999999302e+00 5.556400000000000228e-01 9.485369999999999635e+00 8.496899999999999453e-01 3.440150000000000041e+00 9.379670000000000840e+00 9.138399999999999856e-01 8.842549999999999244e+00 9.404350000000000875e+00 6.280070000000000263e+00 3.697639999999999816e+00 9.472279999999999589e+00 6.287079999999999558e+00 8.933669999999999334e+00 6.561340000000000394e+00 3.715300000000000047e+00 3.279090000000000060e+00 7.002539999999999765e+00 2.857040000000000024e+00 8.640010000000000190e+00 6.895920000000000272e+00 8.239300000000000068e+00 3.059390000000000054e+00 6.781019999999999825e+00 8.064679999999999183e+00 8.394130000000000535e+00 1.543230000000000102e+00 1.344600000000000017e+00 4.414600000000000191e-01 1.016420000000000101e+00 2.218409999999999993e+00 5.855760000000000076e+00 1.160770000000000080e+00 7.151110000000000078e+00 6.262900000000000134e-01 9.849799999999999667e-01 7.046140000000000292e+00 5.977319999999999744e+00 1.538699999999999957e+00 4.546359999999999957e+00 4.316919999999999646e+00 1.790699999999999958e+00 4.149899999999999700e+00 9.666370000000000573e+00 1.878430000000000044e+00 9.622410000000000352e+00 3.919420000000000126e+00 1.787330000000000085e+00 9.567610000000000170e+00 9.469960000000000377e+00 9.364000000000000101e-01 4.342920000000000336e+00 1.688600000000000101e+00 6.407100000000000017e-01 4.601740000000000386e+00 7.226820000000000022e+00 9.563399999999999679e-01 9.589779999999999305e+00 1.661550000000000082e+00 1.131739999999999968e+00 9.987869999999999138e+00 6.969660000000000188e+00 3.941180000000000128e+00 3.879379999999999828e+00 1.256329999999999947e+00 3.419740000000000002e+00 3.932939999999999880e+00 6.439750000000000085e+00 3.790560000000000151e+00 9.383620000000000516e+00 1.139040000000000052e+00 3.797579999999999956e+00 9.107699999999999463e+00 6.420620000000000438e+00