-1.747055000000000025e+00 2.479118999999999851e+00 -6.140170000000000350e-01 3.604080000000000061e-01 -9.586519999999999486e-01 -2.104839000000000127e+00 4.483800000000000008e-01 1.098740000000000050e+00 -1.459890000000000077e-01 2.785432000000000130e+00 -2.241941999999999879e+00 -2.862235000000000085e+00 7.297350000000000225e-01 -4.300938999999999623e+00 -1.448431999999999942e+00 1.714755999999999947e+00 7.747749999999999915e-01 -3.900430000000000064e+00 3.242315000000000058e+00 3.104620000000000157e-01 -1.189106999999999914e+00 2.903465999999999880e+00 -1.782408999999999910e+00 -2.777040000000000064e-01 -4.169889999999999985e-01 -7.359259999999999691e-01 2.027414999999999967e+00 3.895660000000000234e-01 2.455720000000000125e-01 -4.208399999999999919e-01 1.168225999999999987e+00 -5.765223999999999904e+00 -3.280495999999999857e+00 6.983899999999999553e-01 -1.371698000000000084e+00 1.626508000000000065e+00 1.570799999999999974e-01 3.028614000000000139e+00 -2.788809000000000093e+00 -2.074851999999999919e+00 3.917542000000000080e+00 -1.429912000000000072e+00 -2.622039000000000009e+00 -1.689297999999999966e+00 -2.804276000000000213e+00 -1.410659000000000107e+00 7.712800000000000211e-02 -5.253280000000000172e-01 -2.321914000000000033e+00 -1.659947000000000061e+00 3.308422000000000196e+00 3.286353000000000080e+00 1.482744999999999980e+00 -1.454940000000000122e-01 1.997802999999999995e+00 1.545776999999999957e+00 -1.242887999999999993e+00 9.546799999999999731e-01 -2.367077000000000098e+00 4.392642000000000380e+00 -1.959718000000000071e+00 6.283830000000000249e-01 2.513844000000000189e+00 1.588799999999999990e+00 -1.580206999999999917e+00 -2.304790000000000116e+00 -2.915290000000000159e+00 -5.217859999999999721e-01 1.354079999999999950e+00 -1.883332999999999924e+00 5.341930000000000289e-01 -1.627677999999999958e+00 3.561940000000000106e-01 5.925639999999999796e-01 1.314059000000000088e+00 -9.131669999999999510e-01 2.844578999999999969e+00 6.452590000000000270e-01 -1.175250000000000045e-01 -1.984796999999999922e+00 -1.249839999999999979e-01 -3.969590000000000174e+00 1.504955000000000043e+00 -7.170969999999999844e-01 2.240851000000000148e+00 2.580181000000000058e+00 2.873040000000000038e-01 -2.496279999999999888e-01 9.169519999999999893e-01 1.361772999999999900e+00 -6.614860000000000184e-01 -3.184499000000000191e+00 1.544038000000000022e+00 2.545387999999999984e+00 -9.263289999999999580e-01 -3.037402000000000157e+00 3.060093000000000174e+00 3.403039999999999954e-01 -7.921949999999999825e-01 -2.939516999999999936e+00 2.948332999999999871e+00 -8.532359999999999944e-01 9.231549999999999478e-01 1.374692999999999943e+00 -9.482990000000000030e-01 -4.589313999999999893e+00 2.507550999999999863e+00 -1.211939999999999962e-01 -2.853700000000000125e-01 1.483057000000000070e+00 9.114560000000000439e-01 -2.509529000000000121e+00 3.001402000000000125e+00 1.626339999999999897e+00 -2.091223999999999972e+00 -2.306792999999999871e+00 1.767066999999999943e+00 -8.214040000000000230e-01 -2.872040000000000148e+00 1.310281000000000029e+00 1.331749000000000072e+00 8.235980000000000523e-01 -2.191263000000000183e+00 -5.861530000000000351e-01 1.205539999999999945e-01 -1.758308999999999900e+00 4.248549999999999827e-01 6.983390000000000430e-01 2.047521000000000146e+00 -1.245384999999999964e+00 -2.701589999999999825e-01 -5.394670000000000298e-01 -5.747600000000000486e-01 -1.776575000000000015e+00 9.897899999999999476e-01 -1.789263000000000048e+00 7.300499999999999767e-01 -9.094100000000000517e-01 4.867219999999999880e-01 -9.868300000000000682e-02 -9.784800000000000442e-02 1.188987999999999934e+00 -2.353950999999999905e+00 -6.351679999999999549e-01 5.833599999999999897e-02 -4.139736000000000082e+00 2.843703000000000092e+00 1.328627999999999920e+00 -8.150779999999999692e-01 2.660500000000000018e-02 -4.127379999999999938e-01 1.596821000000000046e+00 -7.610700000000000243e-01 1.177097999999999978e+00 -1.886443000000000092e+00 3.665059999999999985e-01 -1.831485000000000030e+00 6.392699999999999771e-02 2.496167999999999942e+00 3.606323999999999863e+00 2.030936000000000075e+00 6.092367000000000310e+00 1.630600000000000105e-01 -1.746264000000000038e+00 2.277089999999999947e-01 1.577185999999999977e+00 2.860034000000000187e+00 -6.304400000000000004e-01 1.658203000000000094e+00 -1.905629999999999935e+00 3.339999999999999913e-02 -1.325220000000000009e-01 -1.183542000000000094e+00 1.128789999999999960e+00 2.601081999999999894e+00 7.097299999999999720e-01 -1.041473000000000093e+00 -2.741007999999999889e+00 -1.128613000000000088e+00 -5.196290000000000076e-01 -4.226860000000000062e-01 2.844765999999999906e+00 -1.245619999999999949e+00 1.408900000000000041e+00 4.079479999999999773e-01 9.762400000000000244e-02 1.267619000000000051e+00 1.343442999999999943e+00 1.274281999999999915e+00 2.349695000000000089e+00 6.250970000000000137e-01 -7.528799999999999937e-01 -4.602769999999999917e-01 -7.745109999999999495e-01 3.264946999999999822e+00 -2.237064999999999859e+00 2.249512999999999874e+00 1.654068000000000094e+00 3.484129999999999727e-01 3.034467999999999943e+00 -4.893279999999999852e-01 -1.491457999999999950e+00 -1.727500000000000036e+00 -1.901731000000000060e+00 6.155150000000000343e-01 -6.459900000000000364e-02 -6.433600000000000430e-02 9.973779999999999868e-01 4.240709999999999757e-01 1.898228999999999944e+00 1.342897999999999925e+00 -8.026450000000000529e-01 -3.823020000000000085e+00 6.101539999999999742e-01 2.469511999999999929e+00 -7.248599999999999488e-01 9.084839999999999582e-01 2.769063000000000052e+00 -1.212763000000000035e+00 -1.756761000000000017e+00 -1.733340000000000103e+00 5.418100000000000138e-01 -3.399893000000000054e+00 -9.473719999999999919e-01 -1.369132999999999933e+00 8.361859999999999848e-01 -2.119895000000000085e+00 -5.850619999999999710e-01 1.887035999999999936e+00 2.298598000000000141e+00 -1.036969999999999975e-01 -4.152800000000000241e-02 -1.278259999999999952e+00 -1.943032000000000092e+00 8.894030000000000546e-01 -1.865766999999999953e+00 1.728304999999999980e+00 -5.414479000000000042e+00 2.024532000000000220e+00 6.000349999999999850e-01 -2.352675000000000072e+00 1.272435999999999900e+00 -1.583110000000000073e-01 8.502929999999999655e-01 -8.082679999999999865e-01 1.949810999999999961e+00 -4.139383999999999730e+00 1.069148999999999905e+00 -1.840931000000000095e+00 2.235669999999999880e-01 -2.245659999999999878e-01 -9.429410000000000291e-01 1.835935000000000095e+00 -2.653054000000000023e+00 1.648362000000000105e+00 5.130510000000000348e-01 5.668330000000000313e-01 1.288515000000000077e+00 6.076291999999999582e+00 -2.255110000000000170e+00 -9.682110000000000438e-01 -9.871520000000000294e-01 -4.460180000000000256e-01 1.936188999999999938e+00 -2.275581999999999994e+00 -2.576200000000000156e-01 -2.086132999999999793e+00 1.670060000000000100e+00 1.883871999999999991e+00 2.990599999999999925e-01 -2.648070999999999842e+00 -2.743897000000000030e+00 1.970013000000000014e+00 1.364748000000000072e+00 1.853604000000000029e+00 9.831739999999999924e-01 1.026264999999999983e+00 2.909909999999999997e-01 -7.850160000000000471e-01 -5.414759999999999573e-01 5.195070000000000521e-01 2.186027000000000164e+00 -1.937879999999999880e-01 4.576430000000000220e-01 2.252560000000000118e-01
-1.836205000000000087e+00 4.571060000000000123e-01 1.078737000000000057e+00 3.496409999999999796e-01 -1.287270000000000081e-01 2.390350999999999893e+00 1.020542999999999978e+00 5.093450999999999951e+00 -3.319139999999999868e-01 -3.718400000000000039e-01 4.049557000000000073e+00 1.746976000000000084e+00 -1.336786000000000030e+00 -8.222699999999999454e-01 -4.566877999999999993e+00 -2.609058999999999795e+00 -1.137590000000000101e+00 2.016853999999999925e+00 1.138065000000000104e+00 -1.593377999999999961e+00 -6.782290999999999848e+00 3.002918000000000198e+00 1.761965000000000003e+00 2.188737999999999850e+00 -2.703710000000000058e+00 -1.063188000000000022e+00 3.173489999999999922e-01 -1.515225999999999962e+00 -1.836907999999999985e+00 1.264609000000000094e+00 -9.901739999999999986e-01 -5.601460000000000328e-01 -2.300380000000000091e+00 1.005948999999999982e+00 2.765400000000000080e+00 1.274917000000000078e+00 2.099260000000000126e+00 -3.557981999999999978e+00 -3.175000000000000044e-01 7.072330000000000005e-01 1.311280000000000001e+00 1.147080000000000044e-01 3.442189999999999972e-01 2.355577999999999950e+00 -3.116127000000000091e+00 -1.911480000000000123e-01 -5.279089999999999616e-01 -4.263730000000000020e-01 -1.238579000000000097e+00 -5.176499999999999851e-02 2.234221999999999930e+00 -1.517474999999999907e+00 -1.549538000000000082e+00 1.498532999999999893e+00 -9.396989999999999510e-01 4.686159999999999770e-01 1.911750000000000060e+00 -2.744725999999999999e+00 -1.371367999999999920e+00 -8.896600000000000341e-02 1.137589999999999990e-01 -7.719840000000000035e-01 4.308230000000000115e-01 2.238539999999999974e+00 -8.358989999999999476e-01 1.935637999999999970e+00 2.246757999999999811e+00 7.049560000000000271e-01 -4.357384999999999842e+00 2.523620000000000196e+00 1.185246999999999939e+00 3.565141999999999811e+00 -8.762000000000000691e-03 -3.948342999999999936e+00 -2.190809999999999924e+00 -2.170274000000000036e+00 -1.540783000000000014e+00 -2.655539999999999790e+00 -1.213299999999999934e-01 8.465030000000000054e-01 3.542467999999999950e+00 -3.595877000000000212e+00 5.706419999999999826e-01 -3.102659999999999862e-01 -1.303587999999999969e+00 -2.884148000000000156e+00 1.504521999999999915e+00 -2.144477999999999884e+00 1.266272999999999982e+00 2.469141000000000030e+00 1.034634999999999971e+00 -5.287899999999999823e-01 -8.098109999999999475e-01 -3.542500000000000093e-01 1.086200000000000013e-02 -5.481620000000000381e-01 9.216459999999999653e-01 -2.959499999999999978e-02 7.917809999999999571e-01 1.010401000000000105e+00 -3.705785999999999802e+00 1.478949999999999987e+00 1.243889000000000022e+00 -5.910459999999999603e-01 -2.522123999999999810e+00 3.139810000000000101e-01 -4.531769999999999965e-01 4.784269999999999912e-01 -1.663845999999999936e+00 -9.079960000000000253e-01 3.750640000000000085e-01 -1.335085999999999995e+00 -4.966769999999999796e-01 -2.424141999999999797e+00 -2.357730000000000103e+00 3.809215000000000018e+00 -1.041825000000000001e+00 5.858861000000000097e+00 1.393877999999999950e+00 -8.071779999999999511e-01 -1.093439000000000050e+00 2.821719999999999784e-01 4.570000000000000173e-01 6.781460000000000266e-01 -1.073239000000000054e+00 1.151418999999999970e+00 -4.199127999999999972e+00 -6.078189999999999982e-01 -4.785538999999999987e+00 -2.317632000000000136e+00 -2.940374999999999961e+00 1.188847999999999905e+00 1.428131000000000039e+00 3.066130000000000244e-01 -2.129230000000000178e+00 -5.679419999999999469e-01 -5.888959999999999750e-01 1.021403000000000061e+00 -1.459239999999999982e-01 -5.425159999999999982e-01 8.002080000000000304e-01 -1.392463999999999924e+00 1.535868999999999929e+00 -3.037306000000000061e+00 3.587800000000000017e-02 1.225541999999999909e+00 1.625145999999999979e+00 -1.122098999999999958e+00 -1.067090000000000094e+00 3.479740000000000055e-01 -2.756480000000000041e-01 -4.550190000000000068e-01 2.390609999999999957e-01 9.801119999999999832e-01 2.001218999999999859e+00 1.936782999999999921e+00 7.037139999999999507e-01 1.206628000000000034e+00 -5.186999999999999944e-02 -7.880909999999999860e-01 -2.369923000000000002e+00 1.975902999999999965e+00 3.367899999999999783e-01 5.158899999999999597e-01 -2.884984999999999911e+00 1.468611000000000111e+00 -3.339735000000000120e+00 1.716995999999999967e+00 -1.223400000000000043e-01 1.114853000000000094e+00 -1.455184000000000033e+00 5.016690999999999789e+00 3.362065999999999999e+00 -6.671780000000000488e-01 1.607510999999999912e+00 5.463550000000000351e-01 1.669224999999999959e+00 -2.753019999999999912e-01 -1.230070000000000052e-01 7.940629999999999633e-01 1.267247999999999930e+00 3.778709000000000096e+00 -2.231006999999999962e+00 8.427289999999999504e-01 -2.193594000000000044e+00 2.439999999999999947e-01 7.658840000000000092e-01 1.002671000000000090e+00 -6.768239999999999812e-01 1.202784999999999993e+00 -2.275767000000000095e+00 1.151073000000000013e+00 6.505379999999999496e-01 1.290049000000000001e+00 -2.093923999999999896e+00 -1.194892000000000065e+00 6.062290000000000179e-01 1.431103000000000014e+00 3.480119999999999880e-01 -4.280490000000000128e-01 -1.655251999999999946e+00 -1.918699999999999919e-02 1.754701999999999984e+00 -2.564684999999999881e+00 -2.559302999999999884e+00 -1.492478999999999889e+00 -1.578559999999999963e-01 -8.087999999999999703e-03 -2.555844000000000005e+00 8.383260000000000156e-01 4.878279999999999839e-01 6.281100000000000572e-02 -1.913375000000000048e+00 -3.667030000000000012e-01 -5.605529999999999680e-01 5.178329999999999878e-01 -6.674390000000000045e-01 6.718260000000000343e-01 7.330170000000000297e-01 -1.641626999999999947e+00 1.417110000000000036e-01 2.056128000000000178e+00 4.648000000000000048e-02 1.182980000000000004e-01 -7.802540000000000031e-01 1.807835000000000081e+00 1.571690000000000031e-01 -1.436803999999999970e+00 2.223726000000000091e+00 -2.792675000000000018e+00 -1.518289999999999917e-01 1.074853000000000058e+00 3.552210000000000090e-01 1.370972999999999997e+00 -4.422450000000000436e+00 1.860803999999999903e+00 4.751329000000000136e+00 7.382729999999999571e-01 1.826324999999999976e+00 1.015173000000000103e+00 -1.044397000000000020e+00 -2.460576000000000096e+00 -1.551217999999999986e+00 5.033163000000000054e+00 1.750888000000000000e+00 3.369009999999999838e+00 -2.282309999999999894e-01 -2.908200000000000021e-02 -1.783989999999999965e+00 -1.346562999999999954e+00 2.138151000000000135e+00 -2.385365000000000180e+00 1.016849999999999976e-01 -1.232672999999999908e+00 1.289914999999999923e+00 -1.023840000000000083e+00 -8.566859999999999475e-01 -2.799989999999999979e-01 1.126637000000000111e+00 5.640070000000000361e-01 4.011979999999999991e-01 -8.603650000000000464e-01 2.467379999999999907e+00 -1.274059999999999915e-01 -3.593169999999999975e-01 -5.567790000000000239e-01 -1.799272999999999900e+00 -5.502679999999999794e-01 5.227799999999999808e-02 1.074673999999999907e+00 6.791810000000000347e-01 -1.799810000000000021e-01 -5.608220000000000427e-01 4.621569999999999845e-01 8.671670000000000211e-01 1.294106999999999896e+00 3.230345999999999940e+00 1.475213000000000108e+00 1.880014000000000074e+00 -1.024272999999999989e+00 -2.566780000000000173e-01 2.047797999999999785e+00 1.147934999999999928e+00 -1.215319000000000038e+00 -2.240552999999999795e+00
-8.150199999999999667e-01 -1.207109999999999905e+00 -1.873898999999999981e+00 4.587030000000000274e-01 -9.907409999999999828e-01 -5.034589999999999899e-01 -1.788159000000000054e+00 -1.449858000000000091e+00 3.019448000000000132e+00 1.638308000000000098e+00 2.035290999999999961e+00 -1.296974999999999989e+00 1.335744999999999960e+00 -1.327607999999999899e+00 2.164638000000000062e+00 -3.931850000000000067e-01 4.647578000000000209e+00 -3.207460999999999895e+00 3.817019000000000162e+00 4.898480000000000056e-01 5.293699999999999795e-02 1.924549999999999983e+00 -1.597129999999999939e+00 -1.583842999999999890e+00 -2.417666999999999788e+00 -7.440470000000000139e-01 -6.360080000000000178e-01 1.966537999999999897e+00 -2.604352000000000000e+00 -9.900590000000000224e-01 -2.771939999999999849e+00 9.337609999999999522e-01 -2.762205999999999939e+00 -1.306969999999999965e+00 -7.587089999999999668e-01 1.827272999999999925e+00 4.243709999999999982e-01 -1.834483000000000086e+00 -2.246442000000000050e+00 1.396112999999999937e+00 -2.604246999999999979e+00 -2.296367000000000047e+00 6.398230000000000306e-01 -8.611360000000000126e-01 1.726680999999999910e+00 1.960658999999999930e+00 4.707069999999999865e-01 -2.248801999999999968e+00 -3.485039999999999805e-01 1.148754999999999971e+00 -2.880977000000000121e+00 3.170058000000000042e+00 3.684604999999999908e+00 -7.873440000000000438e-01 -3.456841999999999970e+00 1.570132000000000083e+00 -2.997069000000000205e+00 -4.062673000000000201e+00 -9.003419999999999757e-01 9.401450000000000085e-01 5.204299999999999482e-01 2.228416000000000174e+00 2.869070999999999927e+00 5.615790000000000504e-01 1.315528000000000031e+00 -1.523241000000000067e+00 -1.515805000000000069e+00 4.732549999999999812e-01 9.438399999999999568e-02 -7.762480000000000491e-01 1.619536000000000087e+00 1.936409000000000047e+00 -1.368369999999999864e-01 -8.904760000000000453e-01 5.542219999999999924e-01 3.387060000000000071e-01 1.798659999999999981e-01 -4.816340000000000066e-01 -5.030010000000000314e-01 2.721388000000000140e+00 -6.934700000000000308e-01 -3.208435999999999844e+00 -4.592970000000000108e-01 -5.630169999999999897e-01 1.721060000000000090e-01 -2.349470000000000169e+00 -3.994059999999999833e-01 2.312410000000000021e-01 -2.686249999999999805e+00 3.182644999999999946e+00 -2.906239999999999934e-01 1.032539000000000096e+00 -2.669199999999999906e-01 2.055667999999999829e+00 -2.645960000000000090e+00 -5.566360000000000197e-01 3.087626000000000204e+00 -2.285649999999999959e+00 3.379636999999999780e+00 -2.674657999999999980e+00 1.874484000000000039e+00 4.450605999999999618e+00 1.377980999999999900e+00 1.390182999999999947e+00 -1.513551000000000091e+00 2.909311999999999898e+00 -1.783420000000000005e-01 -1.703829999999999956e+00 -1.651758000000000060e+00 2.312299999999999911e-01 2.891380000000000061e-01 8.146780000000000133e-01 -3.525719999999999965e-01 -3.997859999999999747e-01 -1.457062999999999997e+00 -1.940699999999999925e-01 2.932190999999999992e+00 1.714569000000000010e+00 -1.425955000000000084e+00 6.592900000000000427e-01 -2.863160000000000149e-01 -2.667999999999999799e-03 -2.009492999999999974e+00 2.557188000000000017e+00 1.555633000000000044e+00 -1.845256000000000007e+00 2.325136999999999787e+00 -1.386452000000000018e+00 3.722389999999999866e+00 9.498900000000000399e-02 -1.513382000000000005e+00 9.235440000000000316e-01 -1.546871000000000107e+00 2.276620000000000033e-01 -5.616999999999999771e-02 -7.426279999999999548e-01 -1.344989999999999908e+00 -3.242055999999999827e+00 -3.906225000000000058e+00 2.759780000000000011e-01 1.805690999999999935e+00 1.758601000000000081e+00 5.506860000000000088e-01 1.716163000000000105e+00 -7.061159999999999659e-01 -7.251699999999999813e-01 1.480453999999999937e+00 1.222364999999999924e+00 -2.326671999999999851e+00 -8.523600000000000620e-02 -4.461470000000000158e-01 1.404362000000000110e+00 -1.307563999999999949e+00 4.995796999999999599e+00 -1.315399999999999903e+00 2.822060000000000124e-01 -1.202279000000000098e+00 1.376713999999999993e+00 2.000084000000000195e+00 1.860822999999999894e+00 1.338830000000000020e-01 -9.160490000000000022e-01 1.000612999999999975e+00 6.162370000000000347e-01 5.826909999999999590e-01 1.191270000000000051e+00 1.329682000000000031e+00 -1.119532999999999889e+00 1.662290999999999963e+00 1.798588000000000076e+00 1.821302999999999894e+00 2.361257000000000161e+00 1.321830000000000060e+00 -1.478839999999999877e-01 -2.092232999999999787e+00 2.196960000000000024e-01 6.569970000000000532e-01 1.207433999999999896e+00 -7.753949999999999454e-01 6.438030000000000141e-01 -1.558686999999999934e+00 1.876600000000000143e-02 -2.950039999999999885e-01 6.892599999999999838e-01 2.102141000000000037e+00 -2.341374000000000066e+00 1.542100000000000068e-02 -9.931820000000000093e-01 2.820599999999999843e-02 -1.486280000000000046e+00 1.533835999999999977e+00 -2.724794999999999856e+00 2.860909999999999842e-01 1.468717999999999968e+00 2.458981999999999779e+00 -1.945872000000000046e+00 1.588586000000000054e+00 4.274689999999999879e-01 -5.441080000000000361e-01 1.831104999999999983e+00 -1.414259999999999962e-01 -3.586587999999999887e+00 3.896680000000000144e-01 -9.874469999999999636e-01 -3.413789999999999880e-01 -3.293404000000000220e+00 1.679454999999999920e+00 8.212899999999999368e-02 -2.465739999999999876e-01 6.463800000000000101e-02 -2.750572000000000017e+00 7.836769999999999570e-01 1.273654000000000064e+00 1.168944999999999901e+00 7.462309999999999777e-01 -1.575349000000000110e+00 -5.417170000000000041e-01 -2.450196000000000041e+00 4.273589999999999889e-01 6.359099999999999753e-01 -3.114100000000000201e-01 -1.173899999999999944e+00 1.528736000000000095e+00 2.915697000000000205e+00 3.017839999999999967e-01 3.492759999999999754e-01 1.336047999999999902e+00 -8.444439999999999724e-01 3.174043000000000170e+00 1.625350000000000128e-01 -5.061799999999999633e-01 3.260270000000000112e-01 3.514686000000000199e+00 -4.650206999999999979e+00 5.861769999999999481e-01 -9.056599999999999373e-02 1.849687999999999999e+00 -1.054613000000000023e+00 -2.113335000000000186e+00 1.241322999999999954e+00 -1.540960000000000107e-01 -1.527911000000000019e+00 1.278647000000000089e+00 -5.439869999999999983e-01 1.087603000000000097e+00 -3.778549999999999964e-01 5.206150000000000500e-01 -1.345545999999999909e+00 2.786515000000000075e+00 8.085000000000000173e-03 -3.418336000000000041e+00 1.247015999999999902e+00 -8.259849999999999692e-01 3.371709999999999985e-01 1.884617999999999904e+00 7.425279999999999658e-01 4.928989999999999760e-01 5.566100000000000214e-02 -1.181726000000000054e+00 1.211187999999999931e+00 4.621129999999999960e-01 -3.765557999999999961e+00 -2.932497999999999827e+00 6.207240000000000535e-01 -2.077440000000000120e-01 -1.876733999999999902e+00 2.228257999999999850e+00 -1.269654000000000060e+00 3.458410000000000095e-01 -2.798726999999999965e+00 3.713544999999999874e+00 6.323809999999999709e-01 -1.151305000000000023e+00 -2.253311000000000064e+00 -3.515461000000000169e+00 -4.651230000000000087e-01 -7.877480000000000038e-01 2.143975000000000186e+00 2.026702999999999921e+00 -7.282250000000000112e-01 2.574797999999999920e+00 -4.742638999999999605e+00 -2.548277999999999821e+00 -2.222516999999999854e+00 1.860565000000000024e+00
1.778610999999999942e+00 1.135602999999999918e+00 1.909882999999999997e+00 2.809468999999999994e+00 -4.611367999999999689e+00 9.823340000000000405e-01 -1.287071999999999994e+00 -2.253391999999999840e+00 -8.344040000000000346e-01 1.796289000000000025e+00 7.795339999999999492e-01 -2.762539999999999996e+00 4.230090000000000239e-01 -1.303600000000000037e-01 -6.252820000000000045e-01 -2.339579999999999993e-01 -1.216963999999999935e+00 1.521869999999999890e-01 1.657107000000000108e+00 -1.315652000000000044e+00 1.832469999999999932e-01 -6.670719999999999983e-01 -3.152025000000000077e+00 -4.573973999999999762e+00 -4.495466000000000406e+00 2.555848999999999815e+00 2.555871999999999922e+00 2.728555000000000064e+00 1.630198000000000036e+00 -1.140606999999999926e+00 4.627411000000000385e+00 2.054021999999999792e+00 1.730879999999999974e+00 -1.402211000000000096e+00 8.772240000000000038e-01 7.860000000000000667e-03 -3.569459999999999855e-01 7.645819999999999839e-01 -1.150584000000000051e+00 1.116772000000000098e+00 -2.996039999999999814e-01 1.051142000000000021e+00 -8.478019999999999445e-01 -3.092824999999999935e+00 3.132013999999999854e+00 -2.814789999999999903e+00 5.153044000000000402e+00 1.846587999999999896e+00 2.296743000000000201e+00 3.881510000000000238e-01 -4.131724000000000174e+00 -4.076469999999999816e-01 -1.248525000000000107e+00 -3.448497000000000146e+00 1.835555000000000048e+00 -7.868720000000000159e-01 -3.797299999999999981e-02 -3.435699999999999865e-01 -1.607288999999999968e+00 6.034679999999999822e+00 2.362521999999999789e+00 7.552699999999999692e-02 -1.144525000000000015e+00 -3.088182000000000205e+00 -2.621870000000000034e-01 -1.703149999999999942e-01 -1.174843000000000082e+00 -1.518404000000000087e+00 7.273599999999999510e-02 -2.577639999999999931e-01 1.506399999999999927e-02 6.937060000000000448e-01 -9.106400000000000605e-02 1.212612000000000023e+00 3.879999999999999985e-04 2.745950000000000113e+00 3.181662000000000212e+00 3.364660999999999902e+00 1.992791999999999897e+00 -2.497590000000000088e-01 -3.725478999999999985e+00 -1.878692000000000029e+00 1.341761999999999899e+00 -1.326311999999999935e+00 3.220559000000000172e+00 1.575202999999999909e+00 -1.776561999999999975e+00 -4.044159999999999977e-01 2.328850000000000087e-01 3.089993999999999907e+00 -6.402390000000000025e-01 -3.303854999999999986e+00 3.645138999999999907e+00 -8.744000000000000036e-03 -1.268753999999999937e+00 1.209084000000000048e+00 -9.591330000000000133e-01 5.112360000000000237e-01 1.083393000000000050e+00 -4.829300000000000259e-02 2.461660999999999877e+00 -2.505080000000000084e-01 1.370014999999999983e+00 1.695486999999999966e+00 -2.669805000000000206e+00 2.376028999999999947e+00 1.624195999999999973e+00 4.145750000000000268e-01 9.918240000000000389e-01 -1.459947000000000106e+00 -9.459560000000000191e-01 1.979649999999999910e+00 2.367896000000000001e+00 -4.004819999999999602e+00 3.503049999999999775e-01 -1.972598999999999991e+00 2.239780000000000104e-01 -4.999689999999999968e-01 -3.238520999999999983e+00 -1.000903000000000098e+00 -1.938169999999999893e-01 -3.179060000000000219e-01 3.410799999999999943e-01 -5.968139999999999556e-01 3.817280000000000117e-01 -4.319479999999999986e-01 -1.479414000000000007e+00 9.068310000000000537e-01 2.770662999999999876e+00 -2.546889999999999876e+00 -1.338400000000000034e+00 1.228180000000000049e+00 1.249991999999999992e+00 -1.069091000000000014e+00 -4.348090000000000011e-01 2.423074999999999868e+00 -2.549071999999999782e+00 1.848144000000000009e+00 -2.053751999999999800e+00 -4.620619999999999727e-01 -1.415380000000000082e+00 4.468739999999999934e-01 -1.966252000000000111e+00 1.216776000000000080e+00 1.112270000000000064e-01 4.685889999999999778e-01 1.483236999999999917e+00 -1.613194000000000017e+00 -8.591180000000000483e-01 -3.365659999999999763e-01 1.158609999999999918e+00 -8.664140000000000175e-01 2.214233000000000118e+00 -6.432970000000000077e-01 2.168571000000000026e+00 2.456491999999999898e+00 -1.823960999999999943e+00 1.373880999999999908e+00 2.850674999999999848e+00 1.056799000000000044e+00 1.756601999999999997e+00 2.547109999999999985e+00 -2.907512999999999792e+00 1.769584000000000046e+00 -1.255649000000000015e+00 -8.621440000000000214e-01 5.866540000000000088e-01 1.265220000000000011e+00 -3.895560000000000134e+00 2.581640000000000157e+00 -2.059285000000000032e+00 2.550056999999999796e+00 -6.610390000000000432e-01 -2.591006999999999838e+00 -4.687020000000000075e-01 -4.847259999999999902e-01 3.750629999999999797e-01 -1.519932999999999979e+00 7.792879999999999807e-01 -3.778099999999999792e-01 -8.206639999999999491e-01 8.119859999999999856e-01 -3.727240000000000109e+00 2.653960000000000208e-01 -1.006458000000000075e+00 1.832556999999999992e+00 -9.907510000000000483e-01 4.670839999999999992e-01 -6.004500000000000393e-01 -3.783815000000000150e+00 -1.627494999999999914e+00 -1.889081000000000010e+00 -6.680030000000000134e-01 4.377389999999999892e-01 9.724070000000000213e-01 -1.377254999999999896e+00 -2.801804000000000183e+00 8.482290000000000108e-01 9.347809999999999730e-01 -2.425788999999999973e+00 -3.100457000000000019e+00 -1.164649999999999991e-01 -1.563582999999999945e+00 1.162652000000000019e+00 1.695699999999999985e-02 -9.512310000000000487e-01 -1.074835999999999903e+00 -1.284558000000000089e+00 -2.014985999999999944e+00 -1.784491999999999967e+00 -2.302613000000000021e+00 1.587291999999999925e+00 -8.178990000000000427e-01 7.470400000000000373e-01 8.190439999999999943e-01 -2.010500000000000065e-01 1.357051000000000007e+00 1.295776999999999957e+00 4.482430000000000025e-01 3.056470000000000020e-01 1.571269000000000027e+00 -3.578620000000000134e-01 3.460280000000000022e-01 -1.419154000000000027e+00 1.326654000000000000e+00 1.981068999999999969e+00 -2.899320000000000230e-01 1.309725000000000028e+00 1.768661999999999956e+00 -7.002040000000000486e-01 -2.856110000000000038e-01 -1.763200000000000101e+00 1.878271999999999942e+00 -2.448004000000000069e+00 -3.566394999999999982e+00 -4.578499999999999931e-02 -2.650000000000000012e-03 7.012380000000000280e-01 -8.587240000000000428e-01 -6.711960000000000148e-01 -1.988388000000000044e+00 1.763476000000000043e+00 1.731125000000000025e+00 -4.554540000000000255e-01 3.337809999999999944e-01 4.675699999999999856e-01 -3.083387999999999796e+00 2.137681000000000164e+00 8.174259999999999859e-01 -1.977399999999999991e-01 -2.752459999999999907e-01 5.249880000000000102e-01 -3.705236000000000196e+00 2.362833000000000183e+00 -2.515595999999999943e+00 2.782430999999999877e+00 8.120340000000000336e-01 1.867177000000000087e+00 4.572390000000000065e-01 3.545899999999999747e-02 -1.146660000000000040e-01 3.030435000000000212e+00 7.798260000000000192e-01 -2.728869999999999907e-01 -2.408314999999999984e+00 -1.065380999999999911e+00 4.005132999999999832e+00 8.050224999999999298e+00 2.112382000000000204e+00 -3.940433000000000074e+00 1.633834999999999926e+00 -3.664669999999999872e-01 4.802580000000000182e-01 -1.634510000000000129e-01 1.418560000000000099e-01 7.707910000000000039e-01 9.598020000000000440e-01 -2.626773000000000025e+00 5.575299999999999701e-01 -1.815925999999999929e+00 -1.178778000000000103e+00 -1.749138000000000082e+00 2.108460000000000056e-01 1.026210999999999984e+00 -2.926905000000000090e+00