-9.505982246099999884e+02
-9.472664038499999606e+02
-9.498651638699999467e+02
-9.498168998899999451e+02
-9.499711031900000080e+02
-9.497821363499999734e+02
-9.491534649200000331e+02
-9.502033637900000258e+02
-9.501551045800000566e+02
-9.500460779700000558e+02
-9.465528410599999916e+02
-9.507147377700000561e+02
-9.502792431399999487e+02
-9.499613399600000321e+02
-9.511924702400000342e+02
-9.474031112999999777e+02
-9.498834169599999768e+02
-9.502018549099999518e+02
-9.500007890399999724e+02
-9.464999105699999973e+02
-9.507015328200000113e+02
-9.508437885600000072e+02
-9.525551058199999943e+02
-9.500796155799999951e+02
-9.505386989600000334e+02
-9.499624179200000071e+02
-9.502759334300000091e+02
-9.491141428199999837e+02
-9.504626074699999663e+02
-9.504488471299999901e+02
-9.509907911599999579e+02
-9.499240498000000343e+02
-9.464137320400000135e+02
-9.491053133299999445e+02
-9.471420525199999929e+02
-9.503383253499999910e+02
-9.498001606100000345e+02
-9.501182357400000456e+02
-9.495060136399999919e+02
-9.498849140199999965e+02
-9.501946966199999451e+02
-9.495269595400000071e+02
-9.495480384799999456e+02
-9.495542908999999554e+02
-9.472008997000000363e+02
-9.503673474299999953e+02
-9.460222688899999639e+02
-9.465219128799999453e+02
-9.481044188700000177e+02
-9.499001804800000173e+02
