1.024245999999999945e+01 2.162859999999999783e+00 2.523519999999999985e+00 3.837000000000000133e-02 2.756759999999999877e+00 8.089520000000000266e+00 9.944919999999999760e+00 8.095729999999999649e+00 2.818490000000000162e+00 1.012475000000000058e+01 7.853139999999999787e+00 8.075490000000000279e+00 5.276839999999999975e+00 2.480360000000000120e+00 2.548909999999999787e+00 5.199530000000000207e+00 2.458429999999999893e+00 7.814689999999999692e+00 4.953590000000000160e+00 7.553399999999999892e+00 2.677299999999999791e+00 4.870049999999999990e+00 7.929299999999999571e+00 7.958000000000000185e+00 2.675910000000000011e+00 1.040900000000000020e-01 2.497079999999999966e+00 2.609989999999999810e+00 1.627000000000000113e-01 7.717539999999999623e+00 2.389260000000000161e+00 4.963000000000000078e+00 2.785829999999999806e+00 2.648080000000000211e+00 5.094899999999999984e+00 8.012940000000000396e+00 7.539629999999999832e+00 4.062999999999999945e-02 2.635380000000000056e+00 7.795350000000000001e+00 3.423200000000000132e-01 8.196870000000000545e+00 8.279870000000000729e+00 5.623980000000000423e+00 2.750719999999999832e+00 7.138989999999999725e+00 5.216090000000000337e+00 7.730419999999999625e+00 2.619439999999999991e+00 2.792940000000000200e+00 5.111930000000000085e+00 2.722850000000000215e+00 2.540789999999999882e+00 1.726399999999999879e-01 2.669130000000000003e+00 8.025299999999999656e+00 5.242420000000000080e+00 1.982080000000000064e+00 7.536669999999999980e+00 2.324700000000000100e-01 7.967259999999999565e+00 2.710739999999999927e+00 5.137730000000000352e+00 7.256079999999999863e+00 2.512080000000000091e+00 1.060568999999999917e+01 7.495020000000000238e+00 7.843329999999999913e+00 5.531780000000000364e+00 7.478309999999999569e+00 7.709310000000000329e+00 1.055559000000000047e+01 1.024525000000000041e+01 1.006900000000000017e-01 5.382360000000000255e+00 1.406600000000000072e-01 2.376099999999999879e-01 1.029538999999999938e+01 1.575999999999999970e-02 5.625060000000000393e+00 5.698249999999999815e+00 1.010544999999999938e+01 5.089120000000000310e+00 1.976600000000000024e-01 5.417519999999999669e+00 4.075300000000000034e-01 5.332429999999999559e+00 4.888239999999999696e+00 1.008221999999999952e+01 8.412000000000000033e-02 5.082429999999999559e+00 5.211630000000000429e+00 5.041579999999999728e+00 5.049710000000000143e+00 5.473220000000000418e+00 1.051229000000000013e+01 3.962019999999999875e+00 3.576360000000000205e+00 3.555009999999999781e+00 4.222380000000000244e+00 3.988710000000000200e+00 8.614979999999999194e+00 3.705909999999999815e+00 8.788429999999999964e+00 3.699380000000000113e+00 3.695190000000000197e+00 9.270720000000000738e+00 8.987090000000000245e+00 9.351470000000000837e+00 4.029119999999999813e+00 3.733080000000000176e+00 9.092739999999999156e+00 4.716879999999999740e+00 9.122740000000000293e+00 8.772220000000000795e+00 9.289690000000000225e+00 4.375440000000000218e+00 5.716510000000000424e+00 8.744540000000000646e+00 9.758340000000000458e+00 4.139759999999999884e+00 1.215049999999999963e+00 1.403599999999999959e+00 3.969959999999999933e+00 9.378170000000000783e+00 6.446390000000000065e+00 6.773690000000000211e+00 6.231049999999999756e+00 1.190909999999999913e+00 3.706319999999999837e+00 6.833919999999999995e+00 6.699790000000000134e+00 9.042099999999999582e+00 7.630400000000000515e-01 1.467710000000000070e+00 8.619479999999999364e+00 1.481640000000000068e+00 6.902590000000000003e+00 3.788780000000000037e+00 9.634500000000000286e-01 4.207659999999999734e+00 3.767129999999999868e+00 1.661240000000000050e+00 6.556280000000000108e+00 3.765439999999999898e+00 6.138810000000000322e+00 3.572179999999999911e+00 3.493100000000000094e+00 6.515139999999999709e+00 9.300440000000000040e+00 8.906959999999999766e+00 1.377960000000000074e+00 3.781810000000000116e+00 9.398300000000000542e-01 7.657399999999999762e-01 8.566979999999999151e+00 8.711539999999999395e+00 6.388880000000000337e+00 4.580309999999999881e+00 9.197229999999999350e+00 6.704449999999999577e+00 1.013409000000000049e+01 3.297899999999999832e+00 4.349079999999999835e+00 6.221299999999999608e-01 3.707889999999999908e+00 4.389929999999999666e+00 6.005869999999999820e+00 3.083419999999999828e+00 9.055949999999999278e+00 1.207810000000000050e+00 6.755399999999999849e+00 8.561479999999999535e+00 7.341580000000000439e+00 8.771610000000000795e+00 3.686710000000000154e+00 1.492359999999999909e+00 9.247700000000000031e+00 3.918460000000000054e+00 6.562129999999999797e+00 8.766890000000000072e+00 9.134900000000000020e+00 9.517480000000000828e+00 8.985730000000000217e+00 9.041890000000000427e+00 6.925410000000000288e+00 1.578319999999999945e+00 2.238150000000000084e+00 3.559079999999999799e+00 3.899989999999999846e+00 1.585990000000000011e+00 9.321669999999999234e+00 6.627699999999999703e-01 7.028509999999999813e+00 4.559169999999999945e+00 1.209929999999999950e+00 5.737490000000000201e+00 9.792099999999999582e+00 6.408470000000000333e+00 1.679140000000000077e+00 4.013499999999999623e+00 8.931839999999999336e+00 1.923510000000000053e+00 9.277070000000000149e+00 6.255889999999999951e+00 6.512240000000000251e+00 3.708499999999999908e+00 5.957580000000000098e+00 6.325040000000000440e+00 8.819229999999999237e+00 1.118260000000000032e+00 3.722440000000000193e+00 1.507779999999999898e+00 1.395469999999999988e+00 3.926410000000000178e+00 6.867350000000000065e+00 4.826799999999999979e-01 9.099030000000000840e+00 1.575420000000000043e+00 1.072880000000000056e+00 8.992399999999999949e+00 6.560439999999999827e+00 5.936550000000000438e+00 3.851560000000000095e+00 6.322600000000000442e-01 6.281039999999999957e+00 3.419729999999999936e+00 6.287180000000000213e+00 6.414950000000000152e+00 9.008089999999999264e+00 1.675340000000000051e+00 6.540169999999999817e+00 6.184289999999999843e+00 5.995899999999999785e+00 1.302200000000000024e+00 4.771709999999999674e+00 4.473650000000000126e+00 1.192209999999999992e+00 3.071279999999999788e+00 9.528000000000000469e+00 1.275120000000000031e+00 9.600640000000000285e+00 4.145080000000000098e+00 1.181310000000000082e+00 8.905559999999999476e+00 9.798159999999999314e+00 6.765390000000000015e+00 4.185749999999999638e+00 3.754710000000000214e+00 6.954589999999999606e+00 3.699019999999999975e+00 8.932079999999999131e+00 6.265649999999999942e+00 9.106899999999999551e+00 4.438220000000000276e+00 6.728959999999999830e+00 7.741799999999999793e-01 9.752140000000000697e+00 1.414250000000000007e+00 1.142460000000000031e+00 1.088249999999999940e+00 1.474310000000000009e+00 1.282969999999999944e+00 6.078560000000000407e+00 4.130359999999999587e+00 6.983509999999999884e+00 1.108819999999999917e+00 1.281279999999999974e+00 6.509559999999999569e+00 7.057789999999999786e+00 6.718210000000000015e+00 1.475780000000000092e+00 1.655759999999999899e+00 6.279289999999999594e+00 1.077639999999999931e+00 7.176370000000000360e+00 8.385500000000000398e+00 7.743789999999999729e+00 1.853560000000000096e+00 8.910379999999999967e+00 6.644720000000000404e+00 7.073430000000000106e+00
9.990589999999999193e+00 2.300780000000000047e+00 2.672079999999999789e+00 1.161100000000000049e-01 2.858680000000000110e+00 8.426859999999999573e+00 1.016108999999999973e+01 7.996769999999999712e+00 2.943220000000000169e+00 -3.550999999999999990e-02 8.080470000000000041e+00 8.493059999999999832e+00 5.297570000000000334e+00 2.530120000000000147e+00 2.204790000000000028e+00 4.904639999999999667e+00 2.834709999999999841e+00 8.018000000000000682e+00 4.646480000000000388e+00 7.936429999999999652e+00 2.534320000000000128e+00 5.093939999999999912e+00 8.126120000000000232e+00 8.270319999999999894e+00 2.519960000000000200e+00 1.485299999999999954e-01 2.974580000000000002e+00 2.820370000000000044e+00 3.815000000000000335e-02 7.933860000000000134e+00 2.591180000000000039e+00 4.803829999999999600e+00 2.750399999999999956e+00 2.618720000000000159e+00 5.479479999999999684e+00 7.406229999999999869e+00 7.214470000000000383e+00 1.014518999999999949e+01 2.536039999999999850e+00 7.672589999999999577e+00 3.185000000000000331e-02 8.278589999999999449e+00 7.492759999999999643e+00 5.487770000000000259e+00 2.391910000000000203e+00 8.049369999999999692e+00 5.286550000000000082e+00 8.268649999999999167e+00 2.457479999999999887e+00 2.757690000000000197e+00 5.434809999999999697e+00 2.912220000000000031e+00 2.701529999999999987e+00 2.379999999999999893e-01 2.250560000000000116e+00 8.048730000000000828e+00 5.065710000000000157e+00 2.618539999999999868e+00 7.813380000000000436e+00 1.045561000000000007e+01 7.592649999999999899e+00 2.700530000000000097e+00 5.438970000000000304e+00 7.866290000000000227e+00 2.545119999999999827e+00 1.059481000000000073e+01 7.553779999999999717e+00 7.897129999999999761e+00 5.718329999999999913e+00 7.645620000000000083e+00 7.724849999999999994e+00 1.071660999999999930e+01 1.020129000000000019e+01 3.564599999999999991e-01 5.383149999999999658e+00 3.042599999999999749e-01 1.534000000000000086e-01 1.144499999999999962e-01 1.029939000000000071e+01 5.315979999999999706e+00 4.899169999999999803e+00 1.020279000000000025e+01 5.303650000000000198e+00 4.436999999999999833e-01 5.391099999999999781e+00 1.036039000000000065e+01 5.216380000000000017e+00 5.140100000000000335e+00 3.700000000000000164e-03 1.068820999999999977e+01 5.613819999999999588e+00 4.999270000000000103e+00 5.230170000000000208e+00 5.356069999999999887e+00 5.100109999999999921e+00 6.221999999999999753e-02 3.552859999999999907e+00 3.950309999999999988e+00 4.161080000000000112e+00 3.887589999999999879e+00 3.880189999999999806e+00 9.659140000000000725e+00 3.823999999999999844e+00 9.456279999999999575e+00 4.083380000000000010e+00 3.930550000000000210e+00 9.014409999999999812e+00 9.515850000000000364e+00 8.664519999999999555e+00 4.642500000000000071e+00 4.083730000000000082e+00 9.267500000000000071e+00 3.949650000000000105e+00 9.653930000000000788e+00 8.616479999999999251e+00 9.441459999999999297e+00 4.314309999999999867e+00 6.237989999999999924e+00 9.265190000000000481e+00 9.350770000000000692e+00 3.989360000000000017e+00 9.810999999999999721e-01 1.718520000000000048e+00 4.519860000000000433e+00 9.952329999999999899e+00 7.121380000000000265e+00 6.152319999999999567e+00 6.584900000000000198e+00 1.279809999999999892e+00 3.679559999999999942e+00 6.801280000000000214e+00 5.814079999999999693e+00 8.983060000000000045e+00 1.289819999999999967e+00 9.134999999999999787e-01 9.576140000000000541e+00 2.061339999999999950e+00 5.888169999999999682e+00 3.314259999999999984e+00 1.685659999999999936e+00 3.885359999999999925e+00 4.568120000000000402e+00 1.866659999999999986e+00 6.232800000000000118e+00 3.333250000000000046e+00 6.506109999999999616e+00 3.170910000000000117e+00 3.740349999999999842e+00 6.826419999999999710e+00 8.913809999999999789e+00 8.386710000000000775e+00 1.350859999999999950e+00 3.469129999999999825e+00 1.064319999999999933e+00 2.079619999999999802e+00 9.903050000000000352e+00 1.010605999999999938e+01 7.157720000000000304e+00 5.493129999999999846e+00 8.369500000000000384e+00 6.106790000000000163e+00 6.529000000000000081e-02 4.057850000000000179e+00 3.814849999999999852e+00 1.497349999999999959e+00 4.302220000000000155e+00 4.429299999999999571e+00 6.949010000000000353e+00 3.001209999999999933e+00 8.871309999999999363e+00 1.508709999999999996e+00 6.868859999999999744e+00 8.710940000000000794e+00 7.255720000000000169e+00 9.066639999999999588e+00 4.194250000000000256e+00 1.747619999999999951e+00 9.259380000000000166e+00 4.163990000000000080e+00 7.181479999999999642e+00 9.278900000000000148e+00 9.206429999999999225e+00 9.696849999999999525e+00 9.172829999999999373e+00 9.599309999999999121e+00 7.434330000000000105e+00 6.232699999999999907e-01 9.701100000000000279e-01 3.823230000000000128e+00 3.798599999999999977e+00 1.345769999999999911e+00 9.531299999999999883e+00 9.080200000000000493e-01 6.337469999999999715e+00 3.573859999999999815e+00 5.348600000000000021e-01 6.979989999999999917e+00 1.000087000000000081e+01 5.853460000000000107e+00 8.694600000000000106e-01 3.595779999999999976e+00 9.154529999999999390e+00 1.184390000000000054e+00 9.065749999999999531e+00 5.934370000000000367e+00 5.926029999999999909e+00 3.642869999999999830e+00 6.340300000000000047e+00 6.711960000000000370e+00 9.253470000000000084e+00 1.661189999999999944e+00 4.354870000000000019e+00 9.765800000000000036e-01 1.704260000000000108e+00 4.527569999999999872e+00 5.930600000000000094e+00 4.384600000000000164e-01 9.380620000000000402e+00 1.493109999999999937e+00 1.867890000000000050e+00 1.005237999999999943e+01 6.054829999999999934e+00 6.669529999999999959e+00 3.807170000000000165e+00 1.521959999999999980e+00 6.586800000000000210e+00 3.606189999999999785e+00 6.875759999999999650e+00 5.652090000000000281e+00 9.182859999999999800e+00 1.351660000000000084e+00 6.802730000000000388e+00 6.116500000000000270e+00 6.281520000000000437e+00 8.520499999999999741e-01 3.921920000000000073e+00 3.553799999999999848e+00 1.305739999999999901e+00 4.640950000000000131e+00 8.569079999999999586e+00 1.103520000000000056e+00 9.208660000000000068e+00 3.811160000000000103e+00 1.243160000000000043e+00 9.621199999999999974e+00 9.156090000000000728e+00 6.355229999999999713e+00 3.436999999999999833e+00 4.201399999999999579e+00 6.612890000000000157e+00 4.297939999999999650e+00 9.655670000000000641e+00 6.273109999999999964e+00 8.706929999999999836e+00 4.241489999999999760e+00 6.513169999999999682e+00 1.631110000000000060e+00 8.945550000000000779e+00 1.253209999999999935e+00 1.539800000000000058e+00 1.645720000000000072e+00 2.007060000000000066e+00 2.106030000000000069e+00 7.390039999999999942e+00 3.872040000000000148e+00 6.404910000000000103e+00 4.750599999999999823e-01 1.581769999999999898e+00 7.902790000000000425e+00 7.123649999999999594e+00 6.748960000000000292e+00 8.724600000000000133e-01 7.842099999999999627e-01 7.224660000000000082e+00 7.188200000000000145e-01 6.096619999999999706e+00 8.445840000000000458e+00 8.901569999999999538e+00 1.620319999999999983e+00 8.921989999999999199e+00 6.868820000000000370e+00 7.868789999999999729e+00
1.026994999999999969e+01 2.529990000000000183e+00 2.445069999999999855e+00 3.354300000000000059e-01 2.357769999999999921e+00 7.881829999999999892e+00 4.612000000000000127e-02 7.534379999999999633e+00 2.756110000000000060e+00 1.028304999999999936e+01 7.703999999999999737e+00 8.091910000000000380e+00 5.060439999999999827e+00 2.683219999999999938e+00 2.225960000000000161e+00 5.710479999999999556e+00 2.788300000000000001e+00 7.835860000000000269e+00 4.886960000000000193e+00 8.046569999999999112e+00 2.600659999999999972e+00 4.828619999999999912e+00 7.969020000000000437e+00 7.864899999999999558e+00 2.216180000000000039e+00 1.022184999999999988e+01 2.730379999999999807e+00 2.950210000000000221e+00 2.900599999999999845e-01 7.713000000000000078e+00 2.469300000000000050e+00 5.066040000000000099e+00 2.965359999999999996e+00 2.804650000000000087e+00 5.083079999999999821e+00 8.082000000000000739e+00 7.518189999999999706e+00 3.443899999999999739e-01 2.795319999999999805e+00 7.984530000000000349e+00 1.765100000000000002e-01 7.765939999999999621e+00 7.865129999999999733e+00 5.364790000000000170e+00 2.515649999999999942e+00 7.861119999999999663e+00 5.380539999999999878e+00 8.363429999999999254e+00 2.768450000000000077e+00 2.603099999999999969e+00 5.435080000000000133e+00 2.526250000000000107e+00 2.549920000000000186e+00 2.239200000000000079e-01 2.339550000000000018e+00 7.774939999999999962e+00 5.373980000000000423e+00 2.551369999999999916e+00 7.920079999999999565e+00 5.980000000000000072e-03 8.049239999999999284e+00 2.823859999999999815e+00 5.345629999999999882e+00 7.613120000000000331e+00 2.801180000000000003e+00 4.449000000000000177e-02 7.479940000000000033e+00 8.011900000000000688e+00 5.651790000000000092e+00 7.636440000000000339e+00 8.134219999999999118e+00 3.647999999999999854e-02 1.029044999999999987e+01 2.918899999999999828e-01 4.931689999999999685e+00 1.016404999999999959e+01 1.005062999999999995e+01 1.048822999999999972e+01 1.601700000000000068e-01 4.898799999999999599e+00 5.095139999999999780e+00 1.248400000000000065e-01 5.180589999999999584e+00 1.064403000000000077e+01 5.325980000000000381e+00 3.632600000000000273e-01 5.409010000000000318e+00 4.809720000000000439e+00 1.005668000000000006e+01 1.056902999999999970e+01 5.278410000000000046e+00 5.392759999999999998e+00 5.465429999999999566e+00 4.810030000000000250e+00 5.326489999999999725e+00 1.040263000000000027e+01 3.911449999999999871e+00 3.642479999999999940e+00 3.706890000000000018e+00 4.012220000000000120e+00 3.987830000000000208e+00 9.103920000000000456e+00 3.556579999999999853e+00 8.916589999999999350e+00 4.006599999999999717e+00 3.456030000000000157e+00 9.212400000000000588e+00 9.217679999999999652e+00 9.424480000000000857e+00 3.885029999999999983e+00 3.741379999999999928e+00 8.876680000000000348e+00 3.750529999999999919e+00 8.963660000000000849e+00 8.598739999999999384e+00 9.468429999999999680e+00 4.570310000000000095e+00 8.777350000000000207e+00 9.048880000000000479e+00 9.505100000000000549e+00 3.546469999999999789e+00 1.324910000000000032e+00 1.516189999999999927e+00 4.082209999999999894e+00 1.672779999999999934e+00 6.856499999999999595e+00 4.069980000000000153e+00 6.931499999999999773e+00 1.207300000000000040e+00 6.509300000000000086e-01 6.374299999999999855e+00 6.138989999999999725e+00 8.816599999999999326e+00 1.346139999999999892e+00 3.759700000000000042e+00 9.373969999999999914e+00 9.899700000000000166e-01 9.024639999999999773e+00 3.330919999999999881e+00 9.740900000000000114e-01 4.115639999999999965e+00 4.480999999999999872e+00 1.370009999999999950e+00 9.292600000000000193e+00 3.535200000000000120e+00 6.234849999999999781e+00 4.235079999999999956e+00 3.495499999999999829e+00 6.755340000000000344e+00 6.944390000000000285e+00 9.209759999999999280e+00 1.286110000000000086e+00 6.559149999999999814e+00 8.820460000000000633e+00 1.493279999999999941e+00 1.107140000000000013e+00 8.909459999999999269e+00 6.665860000000000340e+00 3.979039999999999910e+00 9.541140000000000398e+00 6.258770000000000167e+00 9.435539999999999594e+00 3.562559999999999949e+00 3.964529999999999887e+00 1.164989999999999970e+00 4.053460000000000285e+00 4.071030000000000371e+00 6.537580000000000169e+00 3.560150000000000148e+00 9.255190000000000694e+00 1.449699999999999989e+00 3.807080000000000020e+00 9.407510000000000261e+00 6.360560000000000436e+00 8.989119999999999777e+00 4.050650000000000084e+00 1.070270000000000055e+00 9.386540000000000106e+00 3.911119999999999930e+00 6.409580000000000055e+00 9.083880000000000621e+00 9.074740000000000251e+00 1.630600000000000049e+00 8.880860000000000198e+00 8.934029999999999916e+00 6.991690000000000182e+00 1.038880000000000026e+00 1.454739999999999922e+00 3.570110000000000117e+00 1.604670000000000041e+00 1.247740000000000071e+00 9.153109999999999857e+00 1.174790000000000001e+00 6.459679999999999644e+00 3.892139999999999933e+00 1.696309999999999985e+00 6.102870000000000239e+00 9.218339999999999534e+00 6.169760000000000133e+00 1.635159999999999947e+00 3.709680000000000089e+00 6.911229999999999762e+00 1.648649999999999949e+00 8.853220000000000312e+00 6.122270000000000323e+00 6.713720000000000354e+00 3.544470000000000010e+00 4.002539999999999765e+00 6.958190000000000097e+00 9.496029999999999305e+00 1.095040000000000013e+00 3.556779999999999831e+00 1.529640000000000111e+00 1.552629999999999955e+00 3.868110000000000159e+00 6.650079999999999991e+00 1.218210000000000015e+00 8.909990000000000521e+00 1.328600000000000003e+00 1.365299999999999958e+00 8.517139999999999489e+00 6.816419999999999924e+00 6.703450000000000131e+00 3.938239999999999963e+00 1.828089999999999993e+00 6.775260000000000282e+00 4.382749999999999702e+00 6.599990000000000023e+00 6.253560000000000230e+00 8.954760000000000275e+00 1.282520000000000104e+00 6.433939999999999770e+00 9.318519999999999470e+00 6.605470000000000397e+00 1.502769999999999939e+00 3.679349999999999898e+00 4.072490000000000165e+00 1.276920000000000055e+00 3.746820000000000039e+00 9.395509999999999806e+00 8.827700000000000546e-01 9.158530000000000726e+00 4.209710000000000285e+00 8.606399999999999606e-01 8.896670000000000300e+00 9.493729999999999336e+00 6.714380000000000237e+00 4.186639999999999695e+00 4.451699999999999768e+00 6.381339999999999790e+00 4.087310000000000443e+00 9.329620000000000246e+00 6.026970000000000383e+00 9.548799999999999955e+00 3.817769999999999886e+00 6.166319999999999801e+00 8.967620000000000147e+00 9.295310000000000628e+00 1.197049999999999947e+00 1.047530000000000072e+00 1.224069999999999991e+00 1.355369999999999964e+00 1.085409999999999986e+00 6.483399999999999608e+00 1.309830000000000050e+00 6.412889999999999979e+00 1.196039999999999992e+00 8.248210000000000264e+00 6.523550000000000182e+00 6.966300000000000381e+00 6.267750000000000377e+00 1.464080000000000048e+00 9.232299999999999951e-01 6.578319999999999723e+00 1.726769999999999916e+00 6.281920000000000393e+00 8.943329999999999558e+00 6.694320000000000270e+00 9.494899999999999451e-01 5.935100000000000264e+00 7.046319999999999695e+00 6.539430000000000298e+00
1.026679999999999993e+01 2.548119999999999941e+00 2.676569999999999894e+00 -1.259000000000000050e-02 2.869339999999999780e+00 8.145839999999999748e+00 9.999610000000000554e+00 7.592530000000000001e+00 2.367719999999999825e+00 5.555000000000000215e-02 7.874530000000000030e+00 8.174250000000000682e+00 5.465690000000000381e+00 2.666539999999999910e+00 2.911270000000000024e+00 5.110409999999999897e+00 2.904370000000000118e+00 8.130110000000000170e+00 5.172109999999999985e+00 8.003849999999999909e+00 2.754220000000000113e+00 4.803670000000000329e+00 8.220579999999999998e+00 8.163449999999999207e+00 2.629659999999999886e+00 5.007000000000000339e-02 2.652940000000000076e+00 2.470810000000000173e+00 1.035619999999999941e+01 7.882839999999999847e+00 2.773070000000000146e+00 5.192160000000000331e+00 2.993199999999999861e+00 2.810109999999999886e+00 5.401760000000000339e+00 7.682660000000000267e+00 7.724910000000000387e+00 1.025150000000000006e+01 2.509770000000000056e+00 7.620350000000000179e+00 1.022119999999999962e+01 7.982090000000000352e+00 7.637209999999999610e+00 5.080779999999999852e+00 2.838480000000000114e+00 7.989720000000000155e+00 5.405599999999999739e+00 8.194819999999999993e+00 2.643050000000000122e+00 2.917229999999999990e+00 5.581439999999999735e+00 2.789050000000000029e+00 3.079889999999999795e+00 3.888499999999999734e-01 2.119629999999999903e+00 8.038710000000000022e+00 5.063900000000000290e+00 2.562790000000000123e+00 7.915370000000000239e+00 4.714700000000000002e-01 7.879199999999999982e+00 2.862849999999999895e+00 5.902689999999999770e+00 7.883300000000000196e+00 2.411950000000000038e+00 1.059491000000000049e+01 8.112120000000000886e+00 7.890990000000000393e+00 5.115730000000000111e+00 7.646709999999999674e+00 7.844000000000000306e+00 1.072930999999999990e+01 1.016370000000000040e+01 8.873000000000000331e-02 5.495400000000000063e+00 4.006199999999999761e-01 9.553000000000000380e-02 1.045311000000000057e+01 7.469000000000000639e-02 5.136529999999999596e+00 5.203159999999999563e+00 3.654000000000000303e-02 5.025360000000000049e+00 1.629599999999999937e-01 5.165740000000000443e+00 2.891000000000000167e-02 5.336990000000000123e+00 5.064149999999999707e+00 4.409100000000000241e-01 1.059220999999999968e+01 5.462180000000000035e+00 5.348600000000000243e+00 5.507290000000000241e+00 5.192490000000000272e+00 5.525649999999999729e+00 1.011018999999999934e+01 3.916380000000000194e+00 3.740990000000000038e+00 3.913889999999999869e+00 3.713449999999999918e+00 4.279530000000000278e+00 9.281019999999999825e+00 3.802890000000000104e+00 8.906390000000000029e+00 4.099849999999999994e+00 3.709239999999999871e+00 9.907759999999999678e+00 9.189489999999999270e+00 9.208640000000000825e+00 4.236989999999999590e+00 3.918260000000000076e+00 8.717739999999999156e+00 3.580680000000000085e+00 9.065350000000000463e+00 9.169320000000000803e+00 9.108629999999999782e+00 3.509370000000000100e+00 8.606540000000000745e+00 8.393299999999999983e+00 8.992850000000000676e+00 3.850659999999999972e+00 1.563900000000000068e+00 1.759449999999999958e+00 3.977739999999999831e+00 1.400190000000000046e+00 7.129489999999999661e+00 3.358929999999999971e+00 7.098130000000000273e+00 1.939310000000000089e+00 4.399269999999999570e+00 6.655640000000000001e+00 6.879419999999999646e+00 9.142879999999999896e+00 1.088179999999999925e+00 1.606209999999999916e+00 9.039609999999999701e+00 1.477870000000000017e+00 7.134030000000000094e+00 3.440879999999999939e+00 9.523599999999999843e-01 4.963350000000000151e+00 4.186370000000000147e+00 1.988510000000000000e+00 1.000951000000000057e+01 4.015259999999999607e+00 6.101519999999999833e+00 4.530289999999999928e+00 4.027400000000000091e+00 7.218020000000000103e+00 9.806960000000000122e+00 9.010229999999999961e+00 1.547660000000000036e+00 4.523139999999999716e+00 9.050629999999999953e+00 8.469499999999999806e-01 9.534610000000000696e+00 8.723940000000000694e+00 6.260250000000000092e+00 1.554300000000000015e+00 8.884230000000000516e+00 6.128599999999999604e+00 9.846519999999999939e+00 4.152379999999999960e+00 4.545300000000000118e+00 1.226499999999999924e+00 4.145069999999999588e+00 4.082099999999999618e+00 6.658419999999999561e+00 3.754280000000000062e+00 9.425219999999999487e+00 1.222029999999999950e+00 3.116789999999999949e+00 8.824009999999999465e+00 6.902090000000000281e+00 9.437260000000000204e+00 3.551210000000000200e+00 8.940599999999999659e-01 9.458849999999999980e+00 4.270059999999999967e+00 6.644549999999999734e+00 9.158609999999999474e+00 9.034629999999999939e+00 1.199009999999999909e+00 8.477809999999999846e+00 9.708470000000000155e+00 6.106449999999999712e+00 1.034329999999999972e+00 1.259619999999999962e+00 3.322319999999999940e+00 1.148509999999999920e+00 1.307620000000000005e+00 9.010510000000000019e+00 1.089040000000000008e+00 6.587620000000000253e+00 3.872020000000000017e+00 1.339520000000000044e+00 6.212650000000000006e+00 8.974130000000000607e+00 6.380060000000000286e+00 1.004420000000000091e+00 3.316240000000000077e+00 6.521720000000000184e+00 1.547250000000000014e+00 9.055870000000000530e+00 6.666890000000000427e+00 6.648469999999999658e+00 3.504350000000000076e+00 6.422279999999999767e+00 6.532879999999999576e+00 8.925779999999999603e+00 1.424660000000000037e+00 3.966990000000000016e+00 1.769400000000000084e+00 1.587259999999999893e+00 4.030420000000000336e+00 6.998409999999999798e+00 1.474639999999999951e+00 9.158709999999999241e+00 1.836969999999999992e+00 4.271300000000000097e-01 9.504739999999999966e+00 7.403739999999999988e+00 6.857800000000000118e+00 3.600900000000000212e+00 1.736490000000000089e+00 6.725030000000000285e+00 4.020069999999999588e+00 7.152580000000000382e+00 6.643419999999999881e+00 8.934160000000000323e+00 1.433599999999999985e+00 6.009199999999999875e+00 9.567460000000000520e+00 7.065070000000000405e+00 1.665329999999999977e+00 4.053259999999999863e+00 4.377849999999999575e+00 1.309590000000000032e+00 3.642669999999999852e+00 9.660080000000000666e+00 1.342999999999999972e+00 9.775959999999999539e+00 4.751170000000000115e+00 9.292000000000000259e-01 8.899630000000000152e+00 9.862560000000000215e+00 6.440949999999999953e+00 3.934379999999999988e+00 4.416500000000000092e+00 6.638029999999999653e+00 4.280700000000000394e+00 9.916430000000000078e+00 6.321760000000000268e+00 9.101419999999999177e+00 4.230430000000000135e+00 6.143180000000000085e+00 9.307520000000000238e+00 9.518119999999999692e+00 1.815339999999999954e+00 1.258210000000000051e+00 4.537100000000000022e-01 9.052499999999999991e-01 1.749419999999999975e+00 6.228589999999999627e+00 7.931399999999999562e-01 6.856939999999999813e+00 8.834800000000000431e-01 1.410099999999999909e+00 6.479910000000000281e+00 6.292239999999999611e+00 6.477089999999999570e+00 1.617599999999999927e+00 1.024860000000000104e+00 6.400949999999999918e+00 1.290780000000000038e+00 6.258210000000000051e+00 6.113450000000000273e+00 6.737440000000000317e+00 9.221000000000000307e-01 7.514829999999999899e+00 6.340029999999999610e+00 6.428119999999999834e+00