-9.136569539199999781e+02
-9.126730666700000256e+02
-9.201839890100000048e+02
-9.228833800500000279e+02
-9.181239008100000092e+02
-9.140460313600000291e+02
-9.192078846299999668e+02
-9.134984572199999775e+02
-9.306807538699999895e+02
-9.291734128800000008e+02
-9.377291026200000488e+02
-9.406659191600000440e+02
-9.111091853100000435e+02
-9.133410897899999554e+02
-9.135742943000000196e+02
-9.144024890800000094e+02
-9.257194674900000564e+02
-9.108289338900000303e+02
-9.108661074399999507e+02
-9.183324480300000232e+02
-9.187294666100000313e+02
-9.360557699400000047e+02
-9.383445263300000079e+02
-9.140127619800000502e+02
-9.183733282099999542e+02
-9.125288360600000033e+02
-9.261005990200000042e+02
-9.387290454699999600e+02
-9.264026219999999512e+02
-9.137280753899999581e+02
-9.202013701800000263e+02
-9.206964168099999597e+02
-9.165538389900000311e+02
-9.292902382600000237e+02
-9.388715016400000195e+02
-9.292694817899999862e+02
-9.229784110199999532e+02
-9.155825822900000048e+02
-9.188698937299999443e+02
-9.136723003399999925e+02
-9.129047960799999828e+02
-9.403903569300000527e+02
-9.270275553000000173e+02
-9.203360632699999542e+02
-9.208162481599999865e+02
-9.383104773899999600e+02
-9.198918661300000394e+02
-9.314382716699999492e+02
-9.400719646400000329e+02
-9.195717897499999935e+02
-9.131899339999999938e+02
-9.192571630999999570e+02
-9.362242874199999960e+02
-9.088683281400000169e+02
-9.283746756799999957e+02
-9.174759978299999830e+02
-9.287837839999999687e+02
-9.158989584400000012e+02
-9.239298992400000543e+02
-9.199082041899999922e+02
-9.131969494100000020e+02
-9.349190569700000424e+02
-9.296613933200000019e+02
-9.123331233200000270e+02
-9.247298670999999786e+02
-9.374496381500000552e+02
-9.124281182500000114e+02
-9.367491958800000020e+02
-9.165167363799999976e+02
-9.213035349499999711e+02
-9.095012110300000359e+02
-9.152380100200000470e+02
-9.417793521199999986e+02
-9.398294044599999779e+02
-9.202663783599999761e+02
-9.128993384000000333e+02
-9.154691995700000007e+02
-9.324192443800000092e+02
-9.168069947200000342e+02
-9.165414380500000107e+02
-9.271601904499999591e+02
-9.225249697599999763e+02
-9.141197629399999869e+02
-9.364601368600000342e+02
-9.117368983799999569e+02
-9.145400746999999910e+02
-9.355212052599999879e+02
-9.129984899099999893e+02
-9.280515514799999437e+02
-9.063091620100000227e+02
-9.106374055600000474e+02
-9.247965828100000181e+02
-9.313145523800000092e+02
-9.231612996799999564e+02
-9.174460859900000287e+02
-9.179898813099999870e+02
-9.316252958200000194e+02
-9.371251036600000361e+02
-9.297821345600000313e+02
-9.150990276700000550e+02
