-1.247181000000000095e+00 -1.552370000000000139e-01 -1.425076999999999927e+00 1.099215000000000053e+00 2.475830000000000197e+00 -3.744193999999999800e+00 1.975897000000000014e+00 4.435399999999999898e-01 -3.074540000000000051e-01 1.602665000000000006e+00 9.739029999999999632e-01 -8.637350000000000305e-01 1.602395999999999932e+00 1.380879999999999885e-01 1.270040000000000058e-01 8.896600000000000064e-01 2.509625000000000217e+00 -3.422649999999999859e-01 9.096020000000000216e-01 2.426689000000000096e+00 4.660909999999999775e-01 -4.546129999999999893e-01 1.885602999999999918e+00 5.190299999999999914e-01 -1.055220000000000047e-01 1.603261000000000047e+00 -8.909470000000000445e-01 2.496068999999999871e+00 -7.644020000000000259e-01 2.465231000000000172e+00 8.233920000000000128e-01 -1.905869999999999953e+00 1.170210000000000000e-01 -9.694099999999999939e-01 -2.993030000000000079e+00 -7.154900000000000149e-02 -7.575400000000000189e-02 -4.178020000000000067e-01 -1.502509999999999957e-01 -9.809039999999999981e-01 1.198247000000000062e+00 -6.593510000000000204e-01 -2.885900000000000132e-01 -7.439240000000000297e-01 2.161392000000000202e+00 -1.934239000000000042e+00 -2.419738999999999862e+00 2.180482000000000031e+00 1.968493999999999966e+00 -5.140200000000000324e-01 -6.157700000000000395e-01 1.971420000000000117e-01 2.424549999999999983e+00 -1.401747999999999994e+00 -1.117680000000000062e-01 1.229535999999999962e+00 -1.342746999999999913e+00 -8.992600000000000593e-02 1.239497999999999989e+00 -1.901856999999999909e+00 -2.066008000000000067e+00 1.027708000000000066e+00 -5.091249999999999609e+00 -1.713365999999999945e+00 -7.179400000000000226e-01 2.463189999999999991e+00 3.179770000000000096e-01 1.620492999999999961e+00 -2.689130000000000131e-01 -2.101590999999999987e+00 -7.030710000000000015e-01 -1.553811999999999971e+00 1.030774999999999997e+00 -2.357572999999999919e+00 -8.720259999999999678e-01 -1.183125999999999900e+00 1.355307999999999957e+00 -3.205129999999999924e-01 1.694740000000000135e-01 -1.945608999999999922e+00 1.324594999999999967e+00 -2.656322999999999990e+00 -3.027279999999999971e-01 -7.230059999999999931e+00 4.498460000000000236e-01 -8.706129999999999702e-01 -2.217978000000000005e+00 2.435390000000000055e-01 -8.103900000000000547e-01 2.128048000000000162e+00 -9.210620000000000474e-01 -4.778319999999999790e-01 9.342829999999999746e-01 -1.326241999999999921e+00 -2.968916000000000111e+00 -4.508429999999999938e-01 2.182399999999999965e-02 -3.404090000000000171e-01 7.247059999999999613e-01 -8.085909999999999487e-01 1.120818000000000092e+00 -4.932730000000000170e-01 -1.361029999999999962e+00 1.109285999999999994e+00 -3.130950000000000122e-01 1.359509999999999996e+00 -2.504929000000000183e+00 1.273880000000000012e-01 -2.032069999999999987e-01 1.048923000000000050e+00 -2.718200000000000130e-02 1.077464999999999895e+00 -8.082030000000000047e-01 -4.059420000000000250e-01 -1.993190999999999935e+00 5.308150000000000368e-01 -5.428999999999999798e-02 -7.316380000000000106e-01 -6.015749999999999709e-01 1.450920999999999905e+00 -5.180869999999999642e-01 -9.219389999999999530e-01 1.813126000000000015e+00 -1.332886000000000015e+00 8.333770000000000344e-01 1.191028999999999893e+00 1.214062999999999892e+00 2.733010999999999857e+00 -6.564550000000000107e-01 5.905350000000000321e-01 -6.277869999999999839e-01 7.786629999999999940e-01 1.681836000000000109e+00 -1.165235000000000021e+00 3.728800000000000114e+00 1.303941999999999934e+00 -1.815329999999999999e-01 6.364100000000000312e-01 4.028450000000000086e-01 6.129809999999999981e-01 1.616059999999999997e-01 3.889257999999999882e+00 2.869003000000000192e+00 4.324830000000000063e-01 2.776489999999999791e-01 -2.062456000000000067e+00 -2.760537999999999936e+00 2.446699999999999917e-02 4.733400000000000107e-02 -1.230976000000000070e+00 -9.452789999999999804e-01 1.105969999999999898e+00 4.003410000000000024e-01 -2.456021999999999927e+00 2.106573000000000029e+00 1.094702999999999982e+00 9.839259999999999673e-01 -3.290099999999999969e-02 -9.484169999999999545e-01 1.449265999999999943e+00 -5.474999999999999832e-03 -1.103772999999999893e+00 9.331399999999999417e-02 3.058009999999999895e-01 2.101600000000000135e-01 -1.393580000000000041e+00 1.020658999999999983e+00 -5.824759999999999938e-01 -1.352414999999999923e+00 -7.440149999999999819e-01 1.694126999999999938e+00 -6.840400000000000647e-02 3.119990000000000263e-01 -4.110579999999999790e-01 -1.870875999999999983e+00 -1.231497999999999982e+00 1.402757999999999949e+00 -2.964297000000000182e+00 -1.378789999999999960e+00 5.397830000000000128e-01 1.102869999999999961e-01 -2.772069999999999812e-01 1.230858999999999925e+00 8.012219999999999898e-01 7.737669999999999826e-01 -8.943849999999999856e-01 -1.791619999999999879e-01 -1.745228000000000002e+00 -1.100440000000000029e-01 4.349259999999999793e-01 -5.657060000000000421e-01 -8.008819999999999828e-01 -1.502186000000000021e+00 1.137955000000000050e+00 1.231260999999999939e+00 1.535061999999999927e+00 1.596878999999999937e+00 -1.399216000000000015e+00 -3.437700000000000200e-01 -1.117026000000000074e+00 9.517780000000000129e-01 1.749430999999999958e+00 5.767459999999999809e-01 5.562620000000000342e-01 4.577229999999999910e-01 2.155299999999999924e-02 2.162360000000000115e-01 9.059909999999999908e-01 -3.329349000000000114e+00 2.147441999999999851e+00 6.668960000000000443e-01 8.881419999999999870e-01 9.759740000000000082e-01 -1.254129999999999967e+00 8.262939999999999729e-01 -3.060249999999999915e-01 3.958309999999999884e-01 2.860653999999999808e+00 -4.160920000000000174e-01 -7.074179999999999913e-01 -2.168982999999999883e+00 -1.816605999999999943e+00 -1.497921999999999976e+00 1.744930000000000092e-01 -7.014690000000000092e-01 3.264282999999999824e+00 -6.218470000000000386e-01 2.835249000000000130e+00 -4.543010000000000104e-01 -5.273029999999999662e-01 -1.427743999999999902e+00 3.965690000000000048e-01 7.599059999999999704e-01 -2.479780000000000040e-01 1.766429000000000027e+00 -1.229003999999999985e+00 8.493469999999999631e-01 -1.986010999999999971e+00 2.623820000000000041e-01 1.879518999999999940e+00 1.858638999999999930e+00 -1.597429999999999906e+00 -4.193970000000000198e-01 4.198799999999999755e-02 -4.323239999999999861e-01 1.191311000000000009e+00 -1.283595000000000041e+00 -9.695080000000000364e-01 4.224780000000000202e-01 -9.792750000000000066e-01 -6.349770000000000136e-01 8.530980000000000230e-01 -9.864290000000000003e-01 2.023464999999999847e+00 8.635680000000000023e-01 1.632249999999999979e+00 4.839300000000000268e-01 1.415207000000000104e+00 -3.816959999999999797e-01 -1.531919999999999948e-01 4.803629999999999844e-01 -2.236800999999999817e+00 -1.071795000000000053e+00 4.637549999999999728e-01 -8.590790000000000370e-01 -1.534800000000000053e-01 -8.725859999999999728e-01 1.431580000000000075e+00 2.295030000000000125e-01 1.129647999999999985e+00 1.053806999999999938e+00 -1.477586000000000066e+00 -1.152644999999999920e+00 -1.940669999999999895e-01 -3.706530000000000102e-01 -4.137300000000000005e-02 7.180330000000000323e-01 1.767870000000000053e+00 3.664169999999999927e-01 1.441378000000000048e+00 -2.704130000000000145e-01 -7.964839999999999698e-01 2.626060000000000061e-01 -3.035160000000000080e-01 7.795940000000000092e-01
2.283732000000000095e+00 -1.889855999999999980e+00 -1.055013999999999896e+00 3.087441999999999798e+00 -3.225897999999999932e+00 -2.147835000000000161e+00 4.027049999999999796e-01 -2.185060000000000002e+00 -2.849272000000000027e+00 1.513865000000000016e+00 1.451322000000000001e+00 -1.635253000000000068e+00 -2.461638000000000215e+00 1.717465999999999937e+00 -4.624579999999999802e-01 -2.404615000000000169e+00 -2.834903000000000173e+00 3.351123999999999992e+00 4.137799999999999812e-02 7.463340000000000529e-01 2.278611000000000164e+00 -2.341542000000000012e+00 -1.681253000000000108e+00 2.000728000000000062e+00 2.113982000000000028e+00 1.576513999999999971e+00 3.644829000000000097e+00 -1.465195999999999943e+00 6.188379999999999992e-01 8.608599999999999586e-01 -1.608499999999999930e-01 -1.050550000000000095e+00 -1.138082999999999956e+00 -2.662303999999999782e+00 3.229245000000000143e+00 -2.426714000000000038e+00 1.293757000000000046e+00 1.854664000000000090e+00 9.984969999999999679e-01 2.113446999999999854e+00 3.873034999999999783e+00 -1.588438999999999934e+00 1.462280000000000024e+00 -1.090503000000000000e+00 -1.445918000000000037e+00 2.137481000000000186e+00 -1.333139000000000074e+00 -1.414265000000000105e+00 -2.219355999999999884e+00 -4.979148999999999603e+00 -2.055639999999999912e+00 3.822809999999999819e-01 -5.968130000000000379e-01 -1.379582000000000086e+00 1.229802999999999980e+00 4.139479999999999826e-01 -2.391545999999999950e+00 -7.452530000000000543e-01 2.612531999999999854e+00 -2.003563000000000205e+00 -6.118000000000000174e-03 -1.733136000000000010e+00 -2.537000000000000019e-02 -2.850341999999999931e+00 -7.046444000000000152e+00 1.107752000000000070e+00 -4.257730000000000126e-01 1.954631000000000007e+00 1.891520000000000090e+00 -2.428777999999999881e+00 5.472320999999999991e+00 2.138635999999999981e+00 2.243393000000000193e+00 1.519643000000000077e+00 5.273577000000000403e+00 -1.819949999999999901e-01 -8.418339999999999712e-01 1.556365999999999916e+00 8.544119999999999493e-01 5.584599999999999564e-01 6.863600000000000256e-02 2.030416000000000221e+00 8.314510000000000511e-01 6.427220000000000155e-01 -1.170735000000000081e+00 -1.145515000000000061e+00 2.033770000000000022e-01 -4.753069999999999795e-01 -1.758461999999999970e+00 -2.634218999999999866e+00 -7.282729999999999482e-01 1.328862999999999905e+00 -3.659400000000000208e+00 -1.141010000000000080e+00 2.752771000000000079e+00 -1.388552999999999926e+00 -2.933089999999999864e-01 1.675327000000000011e+00 7.109240000000000004e-01 -2.416099999999999845e-02 2.923020000000000063e-01 1.444218999999999919e+00 -5.088579000000000185e+00 -2.000560000000000116e-01 -3.715851999999999933e+00 8.047029999999999461e-01 1.718512000000000040e+00 -1.899771000000000098e+00 -4.623399999999999732e-02 -1.864063999999999943e+00 2.649763000000000090e+00 6.079109999999999792e-01 -1.955500000000000016e-01 -7.844250000000000389e-01 9.208730000000000526e-01 4.660880000000000023e-01 9.192409999999999748e-01 -8.041800000000000337e-02 1.195869000000000071e+00 -9.455270000000000064e-01 1.113350000000000034e-01 5.184870000000000312e-01 2.136909000000000169e+00 1.627760000000000040e-01 6.805449999999999555e-01 1.403615000000000057e+00 -3.111869999999999914e-01 -1.541603999999999974e+00 1.290661999999999976e+00 -8.244639999999999747e-01 7.263209999999999944e-01 -9.548980000000000246e-01 -9.127159999999999718e-01 1.124150999999999900e+00 -3.763719999999999843e-01 -1.147591000000000028e+00 -1.380549999999999944e+00 -1.341558000000000028e+00 -2.639962999999999838e+00 -1.274448999999999943e+00 4.713479999999999892e-01 1.042310000000000042e-01 1.196673000000000098e+00 3.973100000000000243e-02 8.736509999999999554e-01 1.268064000000000080e+00 -1.487916000000000016e+00 6.475070000000000547e-01 -4.296559999999999824e-01 1.810861999999999972e+00 1.055844000000000005e+00 3.451060000000000239e-01 1.678810000000000024e-01 4.970629999999999771e-01 4.727100000000000052e-02 -5.729870000000000241e-01 -4.219089999999999785e-01 2.122015999999999902e+00 1.313120000000000120e-01 1.186533999999999978e+00 -9.459229999999999583e-01 8.250389999999999668e-01 -4.352949999999999875e-01 1.197310000000000041e-01 6.098580000000000112e-01 4.179215000000000124e+00 1.927254000000000023e+00 -6.809800000000000297e-01 -2.355106999999999839e+00 6.880349999999999522e-01 1.132052999999999976e+00 2.732314000000000132e+00 7.027600000000000513e-01 1.754461999999999966e+00 -1.451745000000000063e+00 -2.411678000000000210e+00 1.644006000000000078e+00 -9.831220000000000514e-01 -2.213004000000000193e+00 1.848410000000000053e-01 6.633909000000000056e+00 3.960742999999999903e+00 -8.502300000000000135e-02 4.758799999999999836e-02 -1.985584000000000016e+00 -9.695070000000000077e-01 -3.994799999999999740e-02 -1.320394999999999985e+00 5.392379999999999951e-01 -2.398458000000000201e+00 6.039999999999999813e-01 -1.180007999999999946e+00 1.385694999999999899e+00 -1.315584000000000087e+00 2.405158999999999825e+00 -1.594419000000000031e+00 6.332389999999999963e-01 8.590769999999999795e-01 1.228979999999999961e+00 -2.580999999999999961e-03 -8.875709999999999988e-01 -2.312609999999999943e-01 -8.026590000000000114e-01 1.481329999999999869e-01 -1.276019000000000014e+00 -9.955600000000000560e-02 8.681419999999999693e-01 3.228650000000000020e+00 1.051311000000000107e+00 -1.289152999999999993e+00 -1.404778000000000082e+00 1.976167000000000007e+00 1.448228999999999989e+00 4.744869999999999921e-01 -1.217395000000000005e+00 -1.523126999999999898e+00 -4.062120000000000175e-01 -1.754531999999999980e+00 -7.174319999999999586e-01 -4.067009999999999792e-01 -2.544128000000000167e+00 -2.549472000000000182e+00 2.067213000000000189e+00 -2.046769999999999978e-01 -8.512229999999999519e-01 -1.159251000000000031e+00 3.877599999999999936e-01 -1.631970000000000087e-01 -1.896036000000000055e+00 -1.287504999999999900e+00 -1.952387000000000095e+00 -1.965551000000000048e+00 1.040839000000000070e+00 7.674609999999999488e-01 -5.291639999999999677e-01 -6.351550000000000251e-01 -1.252054999999999918e+00 -1.714350999999999958e+00 -8.081099999999999395e-02 2.001184999999999992e+00 1.483702000000000076e+00 -2.196356000000000197e+00 7.413570000000000437e-01 1.341660000000000075e-01 -2.481520000000000115e-01 2.641290000000000027e-01 -6.146800000000000042e-01 3.633569999999999856e-01 4.736060000000000270e-01 -1.768208000000000002e+00 2.817692999999999781e+00 -1.643890000000000073e+00 -3.158819999999999961e-01 -3.307559999999999945e-01 2.069589000000000123e+00 1.116386000000000100e+00 -1.574392999999999931e+00 -2.551788999999999863e+00 -1.118284999999999973e+00 -1.529096000000000011e+00 3.224753000000000203e+00 1.946355000000000057e+00 2.653693000000000080e+00 9.691920000000000535e-01 1.169316999999999940e+00 1.588648000000000060e+00 -4.893399999999999972e-01 -9.919459999999999944e-01 -2.631850000000000023e-01 1.139904000000000028e+00 1.422023000000000037e+00 2.109980000000000189e+00 2.284720000000000084e-01 -1.621763999999999983e+00 -1.691961000000000048e+00 1.623010000000000064e+00 1.966442000000000023e+00 -1.062346999999999930e+00 -1.682479999999999976e+00 -2.307460000000000067e-01 -1.276048000000000071e+00 -2.006437000000000026e+00 1.189302000000000081e+00 7.579219999999999846e-01 1.140905000000000058e+00
-1.207720000000000043e-01 -6.693630000000000413e-01 6.937940000000000218e-01 4.202316999999999858e+00 -4.901055000000000383e+00 3.379332999999999920e+00 4.178740000000000232e-01 1.724180000000000046e+00 -6.944099999999999717e-01 8.043542999999999665e+00 3.914579999999999949e+00 3.246922000000000086e+00 -4.397360000000000158e-01 -1.373232999999999926e+00 -2.838710999999999984e+00 -2.208880000000000010e-01 1.808542000000000094e+00 5.890739999999999865e-01 -3.065309999999999979e-01 6.145359999999999712e-01 -1.911715000000000053e+00 -1.616573999999999955e+00 1.892530000000000046e-01 -1.249023999999999912e+00 1.363167000000000018e+00 7.926750000000000185e-01 -1.515897000000000050e+00 -3.009056000000000175e+00 -4.022124999999999950e+00 -4.604249999999999732e-01 1.135423000000000071e+00 1.856470000000000065e-01 -6.918379999999999530e-01 -3.799974000000000185e+00 -4.602988999999999997e+00 1.026124000000000036e+00 -3.882492000000000054e+00 -3.744492999999999849e+00 -1.768262999999999918e+00 1.729610000000000092e+00 -3.250627999999999851e+00 -1.935014999999999930e+00 7.555439999999999934e-01 -2.933209999999999984e-01 6.471320000000000405e-01 -9.196870000000000323e-01 1.724039000000000099e+00 -1.404241999999999990e+00 -5.002885000000000026e+00 -2.172308999999999823e+00 1.238480000000000025e+00 -3.518864000000000214e+00 -2.082952000000000137e+00 -1.868684000000000012e+00 -1.357012000000000107e+00 3.337731999999999921e+00 2.728422999999999821e+00 -2.314735999999999905e+00 7.116289999999999560e-01 -1.415729000000000015e+00 5.253269999999999884e-01 -1.595666000000000029e+00 -9.158739999999999659e-01 3.268599999999999978e-02 2.098109999999999975e-01 -1.719858000000000109e+00 -8.007370000000000321e-01 4.831960000000000144e-01 2.382280999999999871e+00 7.168759999999999577e-01 -2.654909999999999770e-01 -2.979680000000000106e-01 1.189151999999999987e+00 -1.016947999999999963e+00 -1.194835000000000091e+00 3.233146000000000075e+00 -4.627459999999999907e-01 9.245989999999999487e-01 1.551199999999999912e+00 1.636605000000000087e+00 -1.504399000000000042e+00 1.772110000000000074e-01 2.451004000000000183e+00 -2.605469999999999731e-01 1.083550999999999931e+00 -5.447689999999999477e-01 -1.190212000000000048e+00 4.525469999999999771e-01 -1.057061999999999946e+00 -7.477319999999999522e-01 -3.132279000000000035e+00 1.567709999999999937e+00 2.430160000000000098e-01 -6.493320000000000203e-01 -2.106157000000000057e+00 -2.519300000000000012e-02 6.977489999999999526e-01 7.999709999999999877e-01 -1.578580000000000094e+00 -4.645882000000000289e+00 4.095144000000000339e+00 1.519276000000000071e+00 3.969280000000000030e-01 -9.039120000000000488e-01 -1.144967000000000068e+00 1.880868999999999902e+00 -1.347525000000000084e+00 1.637159000000000031e+00 -2.733299999999999966e-02 -7.722120000000000095e-01 1.410263999999999962e+00 -4.445859999999999812e-01 -1.374903999999999904e+00 3.755999999999999790e-03 3.130589999999999762e-01 1.185165999999999942e+00 2.215730000000000199e+00 9.363620000000000276e-01 -8.720419999999999838e-01 -1.202388999999999930e+00 1.570100000000000051e+00 6.677779999999999827e-01 -1.555209999999999926e-01 1.179823000000000066e+00 3.349025000000000141e+00 -3.424160000000000093e+00 -2.833369999999999944e+00 -2.942257000000000122e+00 1.950998999999999928e+00 -9.470640000000000169e-01 -7.661440000000000472e-01 -1.373917999999999973e+00 1.337364999999999915e+00 3.133128000000000135e+00 -1.336268999999999929e+00 7.184610000000000163e-01 -4.692049999999999832e-01 4.545399999999999996e-01 -1.506930000000000103e+00 -3.335679999999999756e-01 -5.176030000000000353e-01 -7.387770000000000170e-01 3.956299999999999817e-01 -5.021590000000000220e-01 -5.501949999999999896e-01 -4.233210000000000028e-01 2.167779999999999985e-01 2.544659999999999922e+00 2.520450000000000190e-01 2.276444999999999830e+00 1.398703000000000030e+00 -7.999819999999999709e-01 3.418860000000000232e-01 1.550799999999999956e+00 -1.318521000000000054e+00 -8.265989999999999727e-01 9.656850000000000156e-01 1.464097999999999900e+00 5.460552999999999990e+00 -1.062299000000000104e+00 1.687089999999999979e+00 1.053873000000000060e+00 -1.115672999999999915e+00 3.177429999999999977e-01 8.279699999999999560e-02 3.296628999999999809e+00 -1.556616000000000000e+00 2.845469999999999944e-01 4.748427000000000398e+00 3.547908000000000062e+00 1.028466000000000102e+00 1.104884999999999895e+00 4.279981000000000257e+00 -3.618999999999999821e-03 -4.517129999999999757e-01 5.305170000000000163e-01 -1.123931999999999931e+00 -6.120449999999999502e-01 -1.323900000000000077e+00 -2.844800000000000106e-01 3.379989999999999939e-01 9.880600000000000493e-01 7.548299999999999454e-02 1.090381999999999962e+00 7.481659999999999977e-01 -8.884090000000000042e-01 -1.016226000000000074e+00 -6.112739999999999840e-01 -6.757370000000000321e-01 2.412739999999999885e-01 -1.143418000000000045e+00 1.433743999999999907e+00 -8.493299999999999461e-02 -1.849590000000000123e-01 -1.741956999999999978e+00 -1.369589999999999974e-01 6.502609999999999779e-01 -2.570991999999999944e+00 -2.055870999999999782e+00 2.267335999999999796e+00 -2.143105999999999955e+00 -5.701099999999999918e-02 1.456353999999999926e+00 -2.918499999999999983e-01 -2.016149999999999887e-01 -7.368350000000000177e-01 2.255618000000000123e+00 -1.981406000000000001e+00 6.730190000000000339e-01 -7.405680000000000041e-01 1.334543000000000035e+00 -6.651930000000000343e-01 8.000519999999999854e-01 -1.139644000000000101e+00 1.602778000000000036e+00 6.819720000000000226e-01 4.459080000000000266e-01 -2.258010000000000017e-01 -6.792629999999999502e-01 1.082939000000000096e+00 1.561636999999999942e+00 9.047520000000000007e-01 2.917952999999999797e+00 -8.201829999999999954e-01 1.033452999999999955e+00 1.431618000000000057e+00 -4.069860000000000144e-01 1.382262000000000102e+00 1.011220999999999925e+00 1.020688999999999957e+00 -1.098103999999999969e+00 1.430829999999999880e-01 -6.108599999999999586e-01 4.783720000000000194e-01 -7.082929999999999504e-01 -1.326291000000000109e+00 -1.620878000000000041e+00 -8.973959999999999715e-01 -3.976716000000000140e+00 1.090470999999999968e+00 -6.792989999999999862e-01 -3.788309999999999733e-01 2.047399999999999914e-02 -5.018070000000000030e-01 3.498560000000000003e-01 -5.951899999999999968e-01 -9.659670000000000201e-01 -8.448719999999999564e-01 -3.341010999999999953e+00 -1.386919000000000013e+00 -2.926460000000000172e-01 2.078609000000000151e+00 -2.810811999999999866e+00 2.396330999999999989e+00 1.199910000000000032e+00 -1.711576999999999904e+00 -1.143679999999999974e-01 1.704317000000000082e+00 -2.119477999999999973e+00 -1.410790000000000100e-01 -8.517709999999999448e-01 8.906730000000000480e-01 1.048880000000000035e+00 2.937729000000000035e+00 -2.130078999999999834e+00 1.746496999999999966e+00 2.174875999999999809e+00 2.825638000000000094e+00 -4.615170000000000106e-01 1.392695999999999934e+00 1.702559999999999907e-01 -7.456840000000000135e-01 8.254139999999999810e-01 3.207900000000000335e-02 6.978370000000000406e-01 -1.119895000000000085e+00 3.635059999999999958e-01 -8.031399999999999650e-02 -1.428938000000000041e+00 1.423091000000000106e+00 -1.342875999999999959e+00 2.879149999999999765e-01 -3.791280000000000205e-01 2.120559999999999945e-01 -9.219300000000000272e-01
1.717427000000000037e+00 2.013395000000000046e+00 -3.550320000000000142e-01 -6.849979999999999958e-01 -3.142218999999999873e+00 -1.319749000000000061e+00 2.306010999999999811e+00 3.827554999999999819e+00 5.279559999999999809e-01 2.084100000000000119e-01 1.497386000000000106e+00 8.192690000000000250e-01 1.742688000000000015e+00 -2.810872999999999955e+00 -3.455099999999999838e-01 1.163790000000000102e+00 -3.047766999999999893e+00 2.005196000000000200e+00 8.247499999999999831e-01 2.598170000000000202e-01 6.498540000000000427e-01 -2.016589999999999883e+00 2.170179999999999887e-01 -2.145880000000000010e-01 1.211656000000000066e+00 -8.919949999999999823e-01 6.664980000000000349e-01 -1.164079000000000086e+00 1.975252999999999926e+00 -2.609105000000000008e+00 7.645699999999999719e-01 3.788221000000000060e+00 2.763186000000000142e+00 -1.889118000000000075e+00 2.352140000000000064e-01 -2.647053000000000100e+00 -1.197216999999999976e+00 1.053107999999999933e+00 -4.608389999999999986e-01 1.751910999999999996e+00 1.611896999999999913e+00 1.402098999999999984e+00 -1.068278000000000061e+00 -2.982010999999999967e+00 -1.036531000000000091e+00 1.704862000000000100e+00 4.114329999999999932e-01 -1.493780000000000108e+00 -2.701900000000000135e-02 -1.177861000000000047e+00 -8.947700000000000098e-02 1.527619999999999978e+00 2.808959999999999790e-01 3.109947000000000017e+00 -6.542630000000000390e-01 8.097790000000000266e-01 -2.073810000000000098e-01 -9.715789999999999704e-01 -1.233557000000000015e+00 -1.633850999999999942e+00 -3.422001999999999988e+00 -9.187889999999999668e-01 -2.869380000000000264e-01 -5.919919999999999627e-01 -1.415705999999999909e+00 -1.585458999999999952e+00 1.965540000000000065e-01 9.097500000000000031e-02 -9.146100000000000341e-01 7.821740000000000359e-01 -9.115900000000000114e-01 2.509700000000000125e-02 -4.588019999999999876e-01 -7.780669999999999531e-01 -6.351860000000000284e-01 -2.998430000000000262e-01 5.390190000000000259e-01 2.358989999999999976e-01 -3.212772000000000183e+00 8.008220000000000338e-01 -8.227090000000000236e-01 -2.728639999999999954e-01 -6.637279999999999847e-01 2.724134999999999973e+00 -1.011314000000000046e+00 7.914860000000000229e-01 2.066685999999999801e+00 -4.284189999999999943e-01 -1.108036000000000021e+00 -1.349040000000000017e+00 1.563768000000000047e+00 1.627200999999999897e+00 7.112140000000000128e-01 -4.642120000000000135e-01 3.900980000000000003e-01 -5.425189999999999735e-01 9.246550000000000047e-01 -1.982331999999999983e+00 -1.631630000000000025e-01 1.083814000000000055e+00 -4.839000000000000246e-02 1.541349999999999942e-01 3.446790000000000131e-01 -1.026669999999999972e+00 -5.237399999999999833e-01 2.985189000000000092e+00 -2.567771000000000026e+00 -1.334460999999999897e+00 -2.047724999999999795e+00 2.318487999999999882e+00 -7.619799999999999907e-01 -1.118732999999999977e+00 1.407380999999999993e+00 1.882954999999999934e+00 2.028402999999999956e+00 -2.704022999999999843e+00 6.436600000000000654e-02 -1.659718999999999944e+00 1.733341999999999938e+00 3.746920000000000250e-01 -7.441999999999999726e-01 -2.607880000000000198e-01 5.524350000000000094e-01 -1.410838000000000036e+00 8.438710000000000377e-01 -3.756289999999999907e-01 -3.527200000000000113e+00 -3.625566000000000066e+00 9.504650000000000043e-01 4.648499999999999854e-01 -8.066630000000000189e-01 -1.029303000000000079e+00 2.757484999999999964e+00 2.450737000000000165e+00 5.029770000000000074e-01 -1.164150000000000018e+00 6.735560000000000436e-01 -1.076097999999999999e+00 -2.136849000000000220e+00 -9.088819999999999677e-01 7.932000000000000162e-02 2.126730000000000009e-01 -1.159418000000000060e+00 5.462799999999999878e-01 -9.466419999999999835e-01 1.351226000000000038e+00 -3.153569999999999984e-01 1.394967999999999986e+00 6.441339999999999844e-01 2.460433999999999788e+00 1.627180000000000015e-01 1.149825000000000097e+00 2.001603999999999939e+00 1.493608000000000047e+00 7.684760000000000479e-01 1.756439000000000084e+00 -2.898999999999999910e-01 1.800910000000000011e-01 -3.728369999999999740e-01 1.983546999999999949e+00 -3.554160000000000097e-01 1.607230000000000047e-01 9.256419999999999648e-01 -1.424287000000000081e+00 -7.278580000000000050e-01 3.060550000000000215e-01 -1.105450000000000044e-01 1.682361999999999913e+00 4.437399999999999678e-02 -1.427162000000000042e+00 5.230519999999999614e-01 -2.232790000000000052e-01 1.123170000000000002e-01 -3.202240000000000086e-01 6.124299999999999883e-02 7.451429999999999998e-01 -1.651831000000000049e+00 1.598130000000000051e+00 2.242730000000000001e-01 1.234507999999999939e+00 9.072590000000000376e-01 5.807750000000000412e-01 4.035020000000000273e-01 7.734000000000000423e-03 4.440850000000000075e-01 -1.324406999999999890e+00 -8.911599999999999522e-01 1.267379999999999951e+00 -1.368403999999999954e+00 2.085583000000000187e+00 3.268130000000000202e-01 -1.544532999999999934e+00 -1.055050000000000016e-01 7.697680000000000078e-01 1.281800999999999968e+00 7.257919999999999927e-01 -4.186429999999999874e-01 -5.984420000000000295e-01 3.350009999999999932e-01 -4.525259999999999838e-01 -1.131566999999999990e+00 -9.751779999999999893e-01 1.341833000000000053e+00 5.221900000000000153e-02 -5.185070000000000512e-01 -3.198659999999999837e-01 -1.415869999999999906e-01 5.020909999999999540e-01 6.584740000000000038e-01 -9.945159999999999556e-01 -1.053606999999999960e+00 2.142536999999999914e+00 -1.137399999999999939e-01 -1.432509000000000032e+00 -5.868090000000000250e-01 8.729999999999999913e-03 7.620240000000000347e-01 2.210920000000000218e+00 -1.994804000000000022e+00 7.996100000000000430e-01 7.210839999999999472e-01 -2.184377000000000013e+00 -5.644040000000000168e-01 -3.075506999999999991e+00 9.195799999999999530e-01 -5.239869999999999806e-01 5.848470000000000057e-01 4.227380000000000027e-01 3.516020000000000256e-01 5.341010000000000479e-01 -7.973259999999999792e-01 1.313415999999999917e+00 -3.274730000000000141e-01 -1.324340000000000073e+00 -2.492449999999999832e+00 1.648832999999999993e+00 1.694682999999999939e+00 4.233310000000000128e-01 1.891490000000000116e-01 -2.338729999999999976e-01 3.243260000000000032e-01 2.740034000000000081e+00 3.940300000000000052e-02 -1.114635000000000042e+00 -1.063253999999999921e+00 5.016669999999999741e-01 1.020477000000000078e+00 -1.875034000000000090e+00 1.587442000000000020e+00 6.110029999999999628e-01 -1.738560000000000105e+00 2.623360000000000136e-01 -7.612250000000000405e-01 8.079340000000000410e-01 -4.105130000000000168e-01 1.714690000000000103e-01 -6.822270000000000278e-01 1.723282999999999898e+00 -1.280092999999999925e+00 -6.840429999999999566e-01 3.657130000000000103e-01 7.443520000000000136e-01 -1.563374999999999959e+00 1.145445999999999964e+00 -7.081769999999999454e-01 9.259490000000000220e-01 -2.155513000000000012e+00 1.771876000000000007e+00 1.490903000000000089e+00 1.059015999999999957e+00 -1.554836000000000107e+00 -1.908797000000000077e+00 3.797130000000000227e-01 -3.687730000000000175e-01 3.881560000000000010e-01 1.027112000000000025e+00 1.277130000000000098e+00 -1.790362999999999927e+00 -1.353636000000000061e+00 -7.367169999999999552e-01 -8.823330000000000339e-01 3.205540000000000056e-01 -1.859419999999999962e-01 2.619119999999999782e-01 -9.553059999999999885e-01