-1.467373000000000038e+00 1.769007999999999914e+00 -1.606103000000000058e+00 -8.804830000000000156e-01 4.550200000000000078e-02 -4.899339999999999806e-01 -1.997670000000000001e-01 -4.261599999999999833e-01 9.080270000000000286e-01 -1.712048000000000014e+00 6.360400000000000498e-01 8.036649999999999627e-01 -1.972015000000000073e+00 -8.998169999999999780e-01 5.562709999999999599e-01 1.560143000000000058e+00 -2.587459999999999760e-01 -2.160655999999999910e+00 1.772736000000000089e+00 1.580378000000000061e+00 7.836779999999999857e-01 -2.019360000000000044e-01 -2.484470000000000012e-01 -2.338668000000000191e+00 7.306709999999999594e-01 1.961050000000000015e-01 -3.691949999999999954e-01 -5.403200000000000225e-01 -1.441080000000000139e-01 -1.445437000000000083e+00 -1.664128000000000052e+00 2.164999999999999824e-03 -1.017317999999999945e+00 -8.310509999999999842e-01 -6.564619999999999900e-01 -1.642500000000000071e-01 -1.663343999999999934e+00 -2.351163000000000114e+00 4.896360000000000157e-01 -8.348619999999999930e-01 3.308917999999999804e+00 -2.850833999999999868e+00 9.134799999999999587e-01 6.566729999999999512e-01 1.120198999999999945e+00 -9.709330000000000460e-01 1.327676999999999996e+00 -1.163632999999999917e+00 1.885890000000000066e+00 2.292500000000000093e-02 4.604900000000000104e-01 -1.779593999999999898e+00 -2.399090000000000111e-01 2.393539999999999779e+00 1.308286999999999978e+00 -7.472069999999999546e-01 4.930149999999999810e-01 -9.993969999999999798e-01 1.155407999999999991e+00 3.364000000000000323e-02 1.397896999999999945e+00 -1.026690000000000103e+00 1.289449000000000067e+00 6.805379999999999763e-01 -2.205800000000000122e-02 -2.371550000000000047e-01 -1.968264000000000014e+00 6.259959999999999969e-01 1.334179000000000004e+00 9.289260000000000295e-01 -1.794521000000000033e+00 1.686501999999999946e+00 -8.887080000000000535e-01 -9.742439999999999989e-01 -7.047400000000000331e-01 1.193208000000000046e+00 -1.952939999999999954e-01 4.581000000000000072e-01 -9.208079999999999599e-01 2.710919999999999996e-01 7.605180000000000273e-01 1.351309000000000093e+00 2.195745000000000058e+00 8.232930000000000526e-01 -1.004925000000000068e+00 -1.198593000000000020e+00 -1.839320999999999984e+00 -1.112130999999999981e+00 -4.395339999999999803e-01 6.525090000000000057e-01 1.810232000000000063e+00 -2.483680000000000054e-01 1.840610000000000079e+00 9.534719999999999862e-01 -8.553680000000000172e-01 4.268549999999999844e-01 2.725290000000000212e-01 -9.426000000000000351e-03 8.039969999999999617e-01 2.140459999999999863e-01 -4.975959999999999828e-01 2.429733999999999838e+00 2.490390000000000104e-01 -1.160100000000000020e-01 -5.795439999999999481e-01 1.055091999999999919e+00 -3.748580000000000245e-01 4.137930000000000219e-01 2.703010000000000135e-01 -2.094930000000000125e-01 -7.863839999999999719e-01 7.352899999999999714e-02 1.518523000000000067e+00 1.909278000000000031e+00 -2.389390000000000125e-01 -2.165370000000000072e-01 -4.973719999999999808e-01 7.235690000000000177e-01 -1.770740000000000092e-01 5.474999999999999867e-01 7.987870000000000248e-01 -1.194706999999999963e+00 -1.090136999999999912e+00 -6.420900000000000218e-02 7.446500000000000341e-02 3.688859999999999917e-01 6.315779999999999728e-01 7.669829999999999703e-01 -1.417610999999999954e+00 -2.022150000000000059e-01 -5.447410000000000307e-01 -2.561470000000000136e-01 3.770430000000000170e-01 1.400744999999999907e+00 1.290959999999999885e-01 1.119771000000000072e+00 1.652119999999999977e-01 8.047320000000000029e-01 -1.063663999999999943e+00 4.804300000000000237e-02 4.618760000000000088e-01 -8.164989999999999748e-01 -1.522020000000000040e-01 5.909050000000000136e-01 4.639179999999999970e-01 1.166886000000000090e+00 -5.192670000000000341e-01 6.024789999999999868e-01 3.557449999999999779e-01 1.222021999999999942e+00 -1.064958999999999989e+00 3.724299999999999833e-02 -1.051935000000000064e+00 -9.386349999999999971e-01 -1.885327999999999893e+00 1.102753000000000094e+00 -1.567870000000000097e-01 -8.852919999999999678e-01 -4.726509999999999878e-01 -1.212555000000000049e+00 -6.404459999999999598e-01 1.465750000000000108e-01 -6.416900000000000381e-02 1.782680000000000098e-01 -2.421380999999999784e+00 9.682119999999999616e-01 -9.181700000000000417e-01 -1.355347000000000079e+00 -3.672673000000000076e+00 7.542940000000000200e-01 -2.495629999999999793e+00 -6.503050000000000219e-01 5.599129999999999940e-01 7.867159999999999709e-01 -1.002870000000000011e-01 2.121850000000000125e-01 3.639760000000000217e-01 -2.784289999999999821e-01 -6.476650000000000462e-01 -4.304350000000000120e-01 2.834280000000000133e-01 -3.243759999999999977e-01 -1.543303000000000091e+00 -8.650489999999999569e-01 -1.594745000000000079e+00 1.463119999999999976e+00 1.985795999999999895e+00 -1.104449999999999932e+00 9.901130000000000209e-01 2.398038999999999810e+00 -4.657450000000000201e-01 1.474804000000000004e+00 7.559630000000000516e-01 -3.163409999999999833e-01 -1.137769000000000030e+00 1.868835999999999942e+00 -3.482259999999999800e-01 7.888039999999999496e-01 7.440350000000000019e-01 8.697629999999999528e-01 -5.029919999999999947e-01 5.899000000000000077e-02 -1.004864999999999897e+00 3.244549999999999934e-01 5.470040000000000457e-01 6.060499999999999915e-02 -1.700899999999999981e-02 1.130049999999999943e-01 -1.856839999999999880e-01 4.885140000000000038e-01 -9.287729999999999597e-01 -9.991729999999999778e-01 1.889290000000000136e-01 -1.186398000000000064e+00 -9.926099999999999923e-01 -1.580469999999999930e-01 1.595094999999999930e+00 2.307697000000000109e+00 4.588979999999999726e-01 1.114889000000000019e+00 1.066014000000000017e+00 -8.058180000000000343e-01 -5.518819999999999837e-01 -1.470927000000000096e+00 -8.555469999999999464e-01 3.016789999999999750e-01 -3.176479999999999859e-01 -4.426249999999999907e-01 2.713083999999999829e+00 -6.147110000000000074e-01 3.879885999999999946e+00 -1.063509000000000038e+00 -5.270780000000000465e-01 9.595380000000000020e-01 1.871812999999999949e+00 -8.635479999999999823e-01 1.814469999999999972e-01 -3.316990000000000216e-01 -7.269060000000000521e-01 3.974599999999999661e-02 -1.349793999999999938e+00 2.188413000000000164e+00 -4.936150000000000260e-01 2.903399999999999870e-01 -6.602700000000000236e-02 3.158619999999999761e-01 -1.650382999999999933e+00 -4.403389999999999804e-01 -1.836897999999999920e+00 -9.315700000000000092e-01 7.898159999999999625e-01 1.173197999999999963e+00 2.663799999999999848e-02 9.326600000000000168e-02 5.063050000000000050e-01 -4.756600000000000272e-01 1.289984000000000020e+00 -2.338046999999999986e+00 5.493679999999999675e-01 8.994969999999999910e-01 -4.418210000000000193e-01 1.148060000000000080e+00 1.198247999999999980e+00 -5.364940000000000264e-01 -5.775789999999999536e-01 -9.856599999999999806e-01 -7.432370000000000365e-01 1.468372999999999928e+00 -1.209490000000000010e-01 -9.328469999999999818e-01 -1.187283000000000088e+00 6.290599999999999525e-01 -1.246600000000000069e-01 -1.893839999999999968e-01 5.880290000000000239e-01 6.708300000000000374e-01 -9.737590000000000412e-01 1.118476999999999943e+00 -1.351183000000000023e+00 2.580169999999999964e-01 5.352419999999999956e-01 7.225279999999999481e-01
1.049269000000000007e+00 -1.065701999999999927e+00 2.813499999999999890e+00 -6.576070000000000526e-01 -1.506299000000000055e+00 6.702000000000000179e-01 6.629920000000000258e-01 -2.527324999999999822e+00 -3.177395000000000191e+00 1.740034999999999998e+00 -6.979599999999999693e-02 -8.186569999999999681e-01 2.486899000000000193e+00 2.344917999999999836e+00 8.124919999999999920e-01 -2.349975000000000147e+00 -6.231640000000000512e-01 -7.233479999999999910e-01 -1.601596000000000020e+00 -1.094130999999999965e+00 4.446760000000000157e-01 -5.889500000000000290e-02 -2.582260999999999918e+00 -2.770014999999999894e+00 2.294645000000000046e+00 5.412329999999999641e-01 2.747850000000000126e+00 2.411989999999999967e-01 7.055379999999999985e-01 3.033879999999999910e+00 1.190004999999999979e+00 -1.051592000000000082e+00 -4.846210000000000240e-01 1.041002999999999901e+00 -6.203809999999999603e-01 -2.013010000000000077e-01 -1.465524999999999967e+00 -1.088289999999999952e-01 -1.987683000000000089e+00 -5.707259999999999556e-01 -7.162920000000000398e-01 1.367923999999999918e+00 -2.509733000000000214e+00 -1.518122999999999889e+00 -5.697670000000000234e-01 -2.764597999999999889e+00 -4.679300000000000126e-02 1.055347999999999953e+00 9.911959999999999660e-01 5.080930000000000168e-01 1.353485999999999967e+00 -1.883469999999999867e-01 -1.098920000000000036e-01 -3.017733999999999916e+00 -8.984900000000000109e-01 -6.912434000000000189e+00 -3.309309999999999974e+00 -9.078300000000000258e-01 8.486280000000000490e-01 1.045050000000000034e+00 -1.277303000000000077e+00 2.273036999999999974e+00 -2.286617999999999817e+00 -2.490368000000000137e+00 2.344323000000000157e+00 -9.809539999999999926e-01 -2.404854999999999965e+00 -4.584170000000000189e-01 1.820576999999999890e+00 3.032270000000000243e-01 3.534370000000000012e-01 -4.163890000000000091e-01 7.488200000000000411e-01 -1.113912999999999931e+00 6.448810000000000375e-01 3.320758999999999794e+00 -3.108791000000000082e+00 6.392430000000000057e-01 -8.445730000000000182e-01 -4.694110000000000227e-01 4.754550000000000165e-01 7.547399999999999665e-01 2.862680000000000224e-01 1.232061999999999991e+00 -5.846139999999999670e-01 8.048579999999999623e-01 -2.359450999999999965e+00 -8.023599999999999621e-01 3.038381999999999916e+00 9.368279999999999941e-01 -6.264910000000000201e-01 -1.752963999999999967e+00 1.085980000000000001e-01 2.203380000000000116e+00 -2.806732999999999922e+00 1.567290000000000072e-01 -4.544860000000000011e-01 -1.728221000000000007e+00 -4.984230000000000049e-01 -1.876690000000000025e-01 -8.159929999999999684e-01 1.415009999999999879e-01 -1.464059999999999917e+00 -1.485710000000000086e-01 -1.464045000000000041e+00 -1.325040999999999913e+00 1.307604999999999906e+00 -9.263989999999999725e-01 1.076430999999999916e+00 7.336570000000000036e-01 -1.262942999999999927e+00 -2.283550000000000024e-01 1.478207000000000049e+00 -6.339669999999999472e-01 6.374379999999999491e-01 2.973181999999999992e+00 -5.170219999999999816e-01 -7.839999999999999747e-03 -2.323419999999999930e-01 9.794610000000000261e-01 -2.034546999999999883e+00 1.858730000000000104e-01 -2.909791999999999934e+00 7.448479999999999546e-01 3.110490000000000199e-01 -4.390020000000000033e-01 -4.231100000000000139e-02 5.776820000000000288e-01 -1.795903000000000027e+00 4.413210000000000188e-01 1.141940000000000038e-01 2.596404999999999852e+00 5.029099999999999682e-01 -2.247329999999999883e-01 -2.733489000000000058e+00 5.885810000000000208e-01 2.996389999999999887e-01 -6.834799999999999764e-01 2.399270000000000014e-01 -1.913040000000000018e-01 6.647279999999999855e-01 3.381200000000000178e-02 1.511990000000000001e-01 1.345610999999999891e+00 -1.218498000000000081e+00 -2.879900000000000168e-02 -2.172699999999999854e+00 7.303859999999999797e-01 -3.069200000000000261e-01 1.246407999999999960e+00 -9.205229999999999801e-01 -1.208579000000000070e+00 1.635947999999999958e+00 -8.650199999999999556e-02 6.791620000000000434e-01 -1.040199000000000096e+00 1.773239000000000010e+00 7.365949999999999998e-01 1.850897999999999932e+00 -6.992080000000000517e-01 -5.484699999999999992e-02 1.298070000000000057e-01 2.468637999999999888e+00 1.002442999999999973e+00 2.045126999999999917e+00 2.810380000000000100e-01 1.591374000000000066e+00 -8.037689999999999557e-01 2.882226000000000177e+00 1.224504000000000037e+00 2.432138000000000133e+00 1.534397000000000011e+00 3.301180000000000003e+00 3.632111000000000089e+00 2.819265999999999828e+00 -1.209354999999999958e+00 6.349310000000000231e-01 1.774890000000000079e+00 1.396100000000000119e-01 -1.355587000000000097e+00 1.504318000000000044e+00 1.032702000000000009e+00 -2.132660000000000111e-01 1.646841999999999917e+00 -1.060241999999999907e+00 -2.095915000000000195e+00 1.398069999999999868e-01 -1.273908000000000040e+00 -1.593013999999999930e+00 -6.652299999999999880e-02 2.398159999999999847e+00 1.882300000000000084e-01 -4.008789999999999853e-01 7.111399999999999944e-01 1.897639000000000076e+00 -1.773053999999999908e+00 -9.453399999999999581e-01 -2.241280999999999857e+00 -1.959500000000000131e-02 -6.055120000000000502e-01 -4.017709999999999892e-01 -8.272340000000000249e-01 1.852438999999999947e+00 1.213119999999999976e+00 -5.143950000000000466e-01 1.133175000000000043e+00 -6.293919999999999515e-01 1.482607000000000008e+00 1.600969999999999893e-01 1.345358999999999972e+00 -1.200725999999999960e+00 -2.153390000000000026e-01 4.084000000000000130e-02 1.012900000000000050e-01 1.233776999999999902e+00 -1.250842999999999927e+00 -2.732010999999999967e+00 -9.545599999999999641e-01 2.951070000000000082e-01 -9.441929999999999490e-01 -8.159300000000000441e-01 4.345370000000000066e-01 -1.875706000000000095e+00 -1.291641000000000039e+00 -1.212226999999999943e+00 1.080880999999999981e+00 -5.759300000000000530e-01 2.682367000000000168e+00 -1.407817000000000096e+00 -1.143755999999999995e+00 1.831010000000000137e-01 -1.682889999999999942e-01 3.430673999999999779e+00 -8.422830000000000039e-01 -4.423170000000000157e-01 1.963249999999999995e-01 1.408250000000000057e-01 9.667609999999999815e-01 -1.471743999999999941e+00 1.839979999999999949e-01 4.289720000000000200e-01 1.573928999999999911e+00 9.872149999999999537e-01 3.680550000000000210e-01 -8.368029999999999635e-01 1.489090000000000025e+00 -2.533000000000000095e-03 -2.532969999999999944e-01 1.026048999999999989e+00 -7.206409999999999760e-01 -1.355197999999999903e+00 -3.300899999999999668e-02 2.483293000000000195e+00 2.119692999999999827e+00 2.947855999999999810e+00 -1.689390000000000058e-01 -3.536560000000000259e-01 2.809679999999999955e-01 -2.164119999999999933e-01 1.009387000000000034e+00 9.142590000000000439e-01 9.909369999999999568e-01 9.685820000000000540e-01 -9.650579999999999714e-01 -1.273285999999999918e+00 -1.173146999999999940e+00 -1.240777000000000019e+00 -3.610516000000000059e+00 2.899610000000000243e-01 -1.379556000000000004e+00 3.490000000000000263e-04 3.764199999999999768e-01 4.671120000000000272e-01 -3.533100000000000129e-02 -1.325023000000000062e+00 8.062840000000000007e-01 -2.820170000000000177e-01 2.745026999999999884e+00 2.321489999999999942e-01 1.603707999999999911e+00 -2.342699999999999991e-02 -2.011604000000000170e+00
-1.886983000000000077e+00 -1.888298999999999950e+00 -2.495280000000000165e+00 -5.344259999999999566e-01 -8.524190000000000378e-01 -1.783290000000000042e+00 -7.807129999999999903e-01 9.971499999999999808e-01 -2.358339999999999881e-01 9.920160000000000089e-01 -6.587929999999999620e-01 3.417919999999999847e-01 -1.545366000000000017e+00 -3.038181999999999938e+00 1.963373000000000035e+00 -2.328520000000000034e-01 3.579660000000000064e-01 -7.484330000000000149e-01 1.489505000000000079e+00 3.800600000000000089e-01 2.500049000000000188e+00 4.240110000000000268e-01 6.977050000000000196e-01 -2.373429999999999984e-01 4.147710000000000008e-01 -1.563428999999999958e+00 -4.004249999999999754e-01 2.031870000000000065e-01 1.232296999999999976e+00 -1.069685999999999915e+00 -7.705250000000000155e-01 -8.898430000000000506e-01 -3.955119999999999747e-01 -1.004901999999999962e+00 -1.167842999999999964e+00 -9.721060000000000256e-01 3.019226000000000187e+00 3.162498999999999949e+00 -1.685700000000000046e-02 5.648929999999999785e-01 3.791599999999999970e-01 -5.539999999999999786e-02 5.299449999999999994e-01 7.248300000000000576e-02 6.186439999999999717e-01 9.469300000000000495e-01 5.296509999999999829e-01 1.307050999999999963e+00 3.542130000000000001e-01 -5.134440000000000115e-01 2.477890000000000092e-01 -4.301119999999999943e-01 2.032440000000000080e-01 1.570640000000000092e-01 2.988370000000000193e-01 -3.815029999999999810e-01 -7.647310000000000496e-01 -2.322427999999999937e+00 -4.364270000000000094e-01 -7.994609999999999772e-01 1.943040000000000045e-01 8.964779999999999971e-01 2.702749999999999875e-01 -4.566160000000000219e-01 -5.400449999999999973e-01 9.722359999999999891e-01 1.800659999999999927e+00 1.026070999999999955e+00 -5.188949999999999951e-01 -3.300779999999999825e-01 -6.994650000000000034e-01 3.149210000000000065e-01 1.363139000000000101e+00 -1.660849000000000020e+00 -6.830070000000000308e-01 5.843979999999999730e-01 1.013290999999999942e+00 3.078104999999999869e+00 -1.506545000000000023e+00 2.588659999999999850e-01 -1.304203999999999919e+00 1.830400000000000083e-01 -2.699289999999999745e-01 2.424240000000000006e-01 -1.178102999999999900e+00 2.410569999999999935e-01 5.725500000000000034e-01 -1.148714999999999931e+00 1.064055999999999891e+00 -1.746353999999999962e+00 -2.131946999999999814e+00 1.160071999999999992e+00 1.829336000000000073e+00 -1.348560000000000036e-01 -7.408439999999999470e-01 -6.455140000000000322e-01 -8.862959999999999727e-01 4.609960000000000169e-01 -6.084640000000000049e-01 1.769644999999999913e+00 -9.139049999999999674e-01 6.477410000000000112e-01 -1.467899999999999934e-02 3.615320000000000200e-01 -4.976169999999999760e-01 1.531306000000000056e+00 3.049990000000000201e-01 -9.156400000000000650e-02 -1.012119999999999909e+00 9.967570000000000041e-01 -1.573992000000000058e+00 -4.175180000000000002e-01 1.905575999999999937e+00 -2.072249999999999925e-01 -9.347529999999999450e-01 -4.357369999999999854e-01 1.449100000000000041e-02 8.728179999999999827e-01 7.027029999999999665e-01 -2.333890000000000131e-01 -8.989279999999999493e-01 -7.712800000000000211e-02 5.774420000000000108e-01 -6.672420000000000018e-01 -1.565649000000000068e+00 3.764790000000000081e-01 -1.948263000000000078e+00 -2.343043000000000209e+00 -1.147064000000000084e+00 5.306849999999999623e-01 5.468939999999999912e-01 5.975139999999999896e-01 -1.195679999999999937e-01 -1.425599999999999923e-01 -6.640399999999999636e-01 -7.751949999999999674e-01 7.782459999999999933e-01 6.050740000000000007e-01 -3.400790000000000202e-01 3.505500000000000282e-02 1.560834000000000055e+00 3.321029999999999816e-01 -9.429440000000000044e-01 -2.668889999999999874e-01 -4.525089999999999946e-01 -7.243800000000000239e-02 -1.771670999999999996e+00 1.489840000000000053e+00 4.447490000000000054e-01 3.201875999999999944e+00 9.637550000000000283e-01 -1.788227000000000011e+00 6.382849999999999913e-01 1.779509999999999981e-01 -3.774270000000000125e-01 -2.270139999999999936e-01 -9.233379999999999921e-01 4.184229999999999894e-01 8.661900000000000155e-01 -5.544050000000000367e-01 9.412819999999999521e-01 -1.223883999999999972e+00 1.636595000000000022e+00 5.161130000000000440e-01 8.180859999999999799e-01 -9.219399999999999817e-02 1.220990000000000020e+00 -1.870533999999999919e+00 -1.097412000000000054e+00 1.249533000000000005e+00 2.719469999999999943e-01 8.080960000000000365e-01 4.717839999999999812e-01 5.302500000000000269e-02 6.651700000000000390e-01 -1.213964999999999961e+00 -2.053160999999999792e+00 5.929780000000000051e-01 3.571699999999999875e-02 6.045700000000000518e-01 5.858910000000000506e-01 4.468719999999999914e-01 7.421899999999999331e-02 5.408509999999999707e-01 5.743070000000000119e-01 -5.994000000000000196e-03 -9.660600000000000298e-01 1.977557999999999927e+00 2.277029999999999887e-01 -1.230379999999999946e-01 -6.056799999999999684e-02 -9.259840000000000293e-01 6.890479999999999938e-01 -1.208874999999999922e+00 -9.338469999999999827e-01 -1.879793999999999965e+00 6.020299999999999541e-01 -2.006419999999999870e-01 -5.451240000000000530e-01 -6.273290000000000255e-01 -3.565050000000000163e-01 -1.464296000000000042e+00 9.393000000000000238e-01 6.448420000000000263e-01 -1.324856999999999951e+00 2.362190000000000123e-01 -1.117280999999999969e+00 -1.823946000000000067e+00 9.573580000000000423e-01 8.016600000000000392e-01 -2.309950000000000059e-01 -1.460749000000000075e+00 2.286820000000000075e+00 -1.969349999999999989e-01 -1.720412000000000052e+00 1.648499999999999965e-02 1.115228000000000108e+00 6.289500000000000646e-02 -1.638819999999999999e-01 4.571800000000000169e-02 3.906029999999999780e-01 -1.964819999999999900e-01 2.419919000000000153e+00 3.061300000000000132e+00 -2.312840000000000007e+00 -6.655800000000000605e-02 -2.216800000000000020e-02 -6.358009999999999495e-01 -8.456489999999999840e-01 -1.328516000000000030e+00 1.383639999999999870e-01 -6.039769999999999861e-01 -8.009700000000000153e-02 -4.238330000000000153e-01 4.018083999999999989e+00 2.381307000000000063e+00 2.442791999999999852e+00 -2.356189999999999951e-01 3.638959999999999972e-01 8.594019999999999992e-01 6.897370000000000445e-01 -3.671399999999999664e-02 5.479709999999999859e-01 1.432690000000000075e-01 -5.633660000000000334e-01 -4.885970000000000035e-01 4.731730000000000103e-01 -9.044339999999999602e-01 -2.488940000000000041e-01 7.039090000000000069e-01 9.559760000000000479e-01 6.898100000000000342e-01 1.969400000000000039e-01 9.731399999999999773e-02 5.915540000000000243e-01 1.872039000000000009e+00 -2.298928999999999778e+00 -2.838649000000000200e+00 -7.376460000000000239e-01 -6.620559999999999778e-01 7.765720000000000400e-01 6.120489999999999542e-01 1.576705000000000023e+00 2.767580000000000040e-01 1.409971000000000085e+00 1.427275999999999989e+00 1.101733000000000073e+00 -5.088219999999999965e-01 -8.263099999999999890e-01 6.735480000000000356e-01 5.303609999999999713e-01 4.321459999999999746e-01 3.059970000000000190e-01 -8.323460000000000303e-01 -1.779268000000000072e+00 -3.072860000000000036e-01 -5.700020000000000087e-01 -1.655385000000000106e+00 1.055880000000000013e-01 -2.948709999999999942e-01 -1.137008999999999936e+00 6.543780000000000152e-01
5.454602999999999646e+00 7.583330000000000348e-01 6.746969999999999912e-01 -1.016537000000000024e+00 -2.201160000000000061e-01 4.511979999999999880e-01 -1.322289999999999965e+00 -1.879709999999999992e-01 -8.198320000000000052e-01 -7.512590000000000101e-01 -8.073749999999999538e-01 -4.062299999999999939e-02 -2.750255000000000116e+00 -1.831252000000000102e+00 -1.301739999999999897e+00 2.862101000000000006e+00 -1.001325000000000021e+00 -2.903299999999999770e-01 3.033856999999999804e+00 -2.000033999999999867e+00 6.649530000000000163e-01 3.982121999999999939e+00 9.590700000000000613e-02 -3.105506000000000100e+00 1.994715999999999934e+00 4.038930999999999827e+00 1.482399999999999940e+00 -2.635512999999999995e+00 -2.429850000000000065e+00 1.403734000000000037e+00 1.863102999999999954e+00 1.534766999999999992e+00 1.550270000000000037e+00 -1.956410000000000093e-01 9.500500000000000611e-02 -9.831870000000000331e-01 -9.363900000000000001e-02 -1.915578000000000003e+00 -9.732849999999999557e-01 -3.582460000000000089e-01 -7.835200000000000498e-02 1.200226000000000015e+00 -1.415983999999999909e+00 7.540590000000000348e-01 -9.296689999999999676e-01 2.954369999999999941e+00 2.562630000000000186e-01 2.709230000000000249e-01 -1.263895999999999908e+00 7.415549999999999642e-01 -3.647733000000000114e+00 -4.641109999999999958e-01 -1.051015000000000033e+00 3.058399999999999785e+00 -7.014019999999999699e-01 -1.561347999999999958e+00 -1.710279000000000105e+00 1.933024000000000076e+00 -2.885801999999999978e+00 1.262955999999999968e+00 -3.584100000000000064e-01 -3.542290000000000161e-01 1.139170000000000016e+00 -1.305976000000000026e+00 -1.051384000000000096e+00 -8.381699999999999706e-01 2.729829999999999757e-01 2.011226999999999876e+00 -1.257676999999999934e+00 -2.051949000000000023e+00 2.270325999999999844e+00 3.264905999999999864e+00 4.149309999999999943e-01 -1.180603999999999987e+00 -1.741913000000000045e+00 -1.504086000000000034e+00 1.236379999999999979e-01 6.194089999999999874e-01 9.083980000000000388e-01 -2.662599000000000160e+00 4.831499999999999684e-02 -6.682249999999999579e-01 3.840127999999999986e+00 1.740267999999999926e+00 2.161141999999999896e+00 -8.376130000000000519e-01 -2.030000999999999944e+00 3.075914000000000037e+00 3.281009999999999760e-01 -5.785000000000000211e-03 -1.840738999999999903e+00 4.552340000000000275e-01 -2.454900000000000138e-02 5.658849999999999714e-01 6.714630000000000321e-01 3.372499999999999942e-01 1.673275000000000068e+00 -3.930660000000000265e-01 5.448399999999999910e-01 -6.688910000000000133e-01 -1.663122999999999907e+00 4.276050000000000129e-01 6.178299999999999764e-02 -4.848000000000000087e-01 -1.042777000000000065e+00 -1.788864999999999927e+00 3.566590000000000149e+00 3.434035999999999866e+00 -1.020251999999999937e+00 5.099299999999999944e-01 3.982100000000000084e-01 -3.344480000000000230e-01 -8.973250000000000393e-01 -1.797870000000000024e-01 1.174803000000000042e+00 2.944080000000000030e-01 1.380299999999999930e-02 1.344619999999999926e+00 -7.094240000000000546e-01 3.565459999999999741e-01 -1.315477999999999925e+00 9.179260000000000197e-01 9.903999999999999471e-01 2.257695000000000007e+00 2.266592999999999858e+00 -1.157993000000000050e+00 1.448221999999999898e+00 1.705195999999999934e+00 -5.434099999999999486e-01 -2.790525999999999840e+00 1.254224999999999923e+00 2.056669999999999998e+00 -3.769435999999999787e+00 -2.391141999999999879e+00 -1.677707000000000059e+00 -1.392763999999999891e+00 -1.062999000000000027e+00 -5.378540000000000543e-01 -9.415170000000000483e-01 1.092640999999999973e+00 1.346514999999999906e+00 -3.686199999999999893e-02 4.563479999999999759e-01 -1.719522999999999913e+00 2.805000999999999856e+00 -3.736799999999999844e-02 9.860130000000000283e-01 -1.247794000000000070e+00 -9.209929999999999506e-01 2.816698000000000146e+00 -7.750899999999999457e-01 1.540785999999999989e+00 -1.535131000000000023e+00 1.222885000000000000e+00 -5.860779999999999879e-01 2.701849999999999863e+00 -5.918870000000000520e-01 -1.244470000000000021e-01 2.238310000000000022e-01 1.860338999999999965e+00 -9.167960000000000553e-01 -1.530200999999999922e+00 -1.490347000000000088e+00 -8.788780000000000481e-01 1.008560000000000012e-01 7.082340000000000302e-01 -6.719400000000000373e-02 9.115400000000000169e-01 -1.588546000000000014e+00 -1.731584000000000012e+00 -8.258339999999999570e-01 7.887070000000000469e-01 7.548030000000000017e-01 2.382199999999999943e-02 -5.504860000000000309e-01 -6.573029999999999706e-01 3.260279999999999845e-01 5.175380000000000535e-01 3.069729999999999959e-01 1.062394000000000061e+00 -7.060629999999999962e-01 2.043669999999999931e-01 -5.969929999999999959e-01 4.908339999999999925e-01 -3.768200000000000022e-02 2.052879999999999983e-01 9.888090000000000490e-01 5.290620000000000323e-01 1.800186000000000064e+00 1.770026000000000099e+00 -1.465526000000000106e+00 -3.238460000000000227e-01 -2.789601000000000219e+00 7.491409999999999458e-01 6.373999999999999666e-01 -6.338329999999999798e-01 2.706069999999999975e+00 -3.521580000000000266e-01 -9.735409999999999897e-01 1.842549999999999910e+00 3.830040000000000111e-01 -2.249201999999999924e+00 -4.976130000000000275e-01 1.056451999999999947e+00 -1.332915000000000072e+00 -4.378679999999999795e-01 8.393929999999999447e-01 -2.936830000000000274e-01 -1.927421000000000051e+00 -1.474356000000000000e+00 -1.906441000000000052e+00 -1.806715000000000071e+00 -1.548677999999999999e+00 1.392495000000000038e+00 9.637449999999999628e-01 -2.001717999999999886e+00 -1.061712999999999907e+00 -3.806500000000000217e+00 -1.623517000000000099e+00 -1.257962000000000025e+00 -1.202430000000000027e-01 2.754646000000000150e+00 1.592281999999999975e+00 2.104054999999999787e+00 -9.642359999999999820e-01 -1.393672000000000022e+00 7.427270000000000261e-01 -4.377510000000000012e-01 -1.178999999999999927e-03 -1.208922999999999970e+00 1.173272000000000093e+00 6.227719999999999922e-01 1.868686999999999987e+00 -8.259819999999999940e-01 -4.761710000000000109e-01 4.430359999999999854e-01 1.276645999999999948e+00 7.017609999999999681e-01 -1.675189000000000039e+00 -7.420499999999999874e-01 -8.024999999999999911e-01 -2.282470000000000054e-01 -2.264657000000000142e+00 -1.432401999999999953e+00 7.877290000000000125e-01 -2.035759000000000096e+00 1.121364999999999945e+00 -1.166139000000000037e+00 2.251789999999999903e-01 -3.106949999999999990e-01 -1.221093999999999902e+00 1.470588999999999924e+00 -1.230433000000000110e+00 4.214930000000000065e-01 3.629470000000000196e-01 -1.926075999999999899e+00 2.315873999999999988e+00 2.654079999999999773e-01 2.297301000000000037e+00 1.300648999999999944e+00 -1.869459999999999900e+00 2.767959999999999976e+00 1.938808000000000087e+00 1.798772000000000038e+00 -1.345720000000000027e+00 1.350816000000000017e+00 -1.092330999999999941e+00 3.492700000000000249e-01 -4.971699999999999731e-02 4.081520000000000148e-01 7.669599999999999751e-01 7.282830000000000137e-01 -8.075759999999999605e-01 -1.362551000000000068e+00 -2.139365999999999879e+00 -1.286237000000000075e+00 3.416319999999999912e-01 -4.243680000000000230e-01 -1.485070000000000001e-01 1.943980999999999959e+00 1.531270000000000131e-01 -1.701761000000000079e+00