1.029264882600000064e+01 0.000000000000000000e+00 0.000000000000000000e+00 -6.854669100000000681e-02 1.029243958700000050e+01 0.000000000000000000e+00 -1.914709999999999969e-04 2.223199999999999992e-04 1.060107875499999963e+01
1.047400489199999996e+01 0.000000000000000000e+00 0.000000000000000000e+00 -6.975448099999999318e-02 1.047379196700000037e+01 0.000000000000000000e+00 -1.948449999999999954e-04 2.262370000000000093e-04 1.078786934400000064e+01
9.919730480000000128e+00 0.000000000000000000e+00 0.000000000000000000e+00 -6.606314000000000630e-02 9.919528822000000190e+00 0.000000000000000000e+00 -1.845340000000000055e-04 2.142649999999999958e-04 1.021698552199999988e+01
1.037339610100000087e+01 0.000000000000000000e+00 0.000000000000000000e+00 -6.908444900000000610e-02 1.037318521999999987e+01 0.000000000000000000e+00 -1.929739999999999993e-04 2.240640000000000014e-04 1.068424570500000037e+01
1.048102579799999923e+01 0.000000000000000000e+00 0.000000000000000000e+00 -6.980123900000000103e-02 1.048081273000000024e+01 0.000000000000000000e+00 -1.949759999999999981e-04 2.263889999999999902e-04 1.079510063899999928e+01
1.033172620200000047e+01 0.000000000000000000e+00 0.000000000000000000e+00 -6.880693699999999857e-02 1.033151616900000036e+01 0.000000000000000000e+00 -1.921980000000000053e-04 2.231640000000000067e-04 1.064132712500000011e+01
1.048221351399999968e+01 0.000000000000000000e+00 0.000000000000000000e+00 -6.980914800000000142e-02 1.048200042100000040e+01 0.000000000000000000e+00 -1.949979999999999921e-04 2.264140000000000044e-04 1.079632394499999926e+01
1.033352871800000017e+01 0.000000000000000000e+00 0.000000000000000000e+00 -6.881894199999999406e-02 1.033331864800000055e+01 0.000000000000000000e+00 -1.922319999999999986e-04 2.232029999999999973e-04 1.064318365499999963e+01
1.039573715200000059e+01 0.000000000000000000e+00 0.000000000000000000e+00 -6.923323600000000355e-02 1.039552581699999934e+01 0.000000000000000000e+00 -1.933890000000000012e-04 2.245469999999999899e-04 1.070725622900000040e+01
1.039274670900000075e+01 0.000000000000000000e+00 0.000000000000000000e+00 -6.921331999999999485e-02 1.039253543499999921e+01 0.000000000000000000e+00 -1.933340000000000026e-04 2.244819999999999964e-04 1.070417617500000063e+01
1.013526620400000056e+01 0.000000000000000000e+00 0.000000000000000000e+00 -6.749855899999999964e-02 1.013506016500000051e+01 0.000000000000000000e+00 -1.885439999999999892e-04 2.189199999999999978e-04 1.043897999800000065e+01
1.040298364500000083e+01 0.000000000000000000e+00 0.000000000000000000e+00 -6.928149599999999797e-02 1.040277216299999985e+01 0.000000000000000000e+00 -1.935240000000000126e-04 2.247030000000000067e-04 1.071471987099999978e+01
1.040521405299999991e+01 0.000000000000000000e+00 0.000000000000000000e+00 -6.929635000000000655e-02 1.040500252600000053e+01 0.000000000000000000e+00 -1.935650000000000077e-04 2.247510000000000035e-04 1.071701711500000087e+01
1.016410896100000016e+01 0.000000000000000000e+00 0.000000000000000000e+00 -6.769064499999999374e-02 1.016390233499999951e+01 0.000000000000000000e+00 -1.890799999999999989e-04 2.195429999999999951e-04 1.046868705800000043e+01
1.041638441699999973e+01 0.000000000000000000e+00 0.000000000000000000e+00 -6.937074199999999913e-02 1.041617266299999933e+01 0.000000000000000000e+00 -1.937730000000000030e-04 2.249929999999999920e-04 1.072852221099999959e+01
1.036915383900000087e+01 0.000000000000000000e+00 0.000000000000000000e+00 -6.905619699999999972e-02 1.036894304499999997e+01 0.000000000000000000e+00 -1.928950000000000022e-04 2.239719999999999895e-04 1.067987631999999998e+01
1.025714718100000056e+01 0.000000000000000000e+00 0.000000000000000000e+00 -6.831025799999999870e-02 1.025693866399999976e+01 0.000000000000000000e+00 -1.908110000000000134e-04 2.215530000000000114e-04 1.056451326500000043e+01
1.041563921700000073e+01 0.000000000000000000e+00 0.000000000000000000e+00 -6.936577900000000241e-02 1.041542747799999979e+01 0.000000000000000000e+00 -1.937589999999999994e-04 2.249759999999999954e-04 1.072775468000000032e+01
1.041379465199999999e+01 0.000000000000000000e+00 0.000000000000000000e+00 -6.935349400000000164e-02 1.041358295000000034e+01 0.000000000000000000e+00 -1.937250000000000061e-04 2.249370000000000048e-04 1.072585484100000031e+01
1.030039953600000047e+01 0.000000000000000000e+00 0.000000000000000000e+00 -6.859830899999999620e-02 1.030019013899999969e+01 0.000000000000000000e+00 -1.916160000000000031e-04 2.224869999999999994e-04 1.060906172199999986e+01
1.051368661699999940e+01 0.000000000000000000e+00 0.000000000000000000e+00 -7.001875200000000354e-02 1.051347288500000055e+01 0.000000000000000000e+00 -1.955829999999999873e-04 2.270940000000000046e-04 1.082874017299999991e+01
1.040314148500000080e+01 0.000000000000000000e+00 0.000000000000000000e+00 -6.928254699999999988e-02 1.040292999899999948e+01 0.000000000000000000e+00 -1.935270000000000057e-04 2.247069999999999883e-04 1.071488244000000023e+01
1.038945019800000047e+01 0.000000000000000000e+00 0.000000000000000000e+00 -6.919136600000000414e-02 1.038923899099999915e+01 0.000000000000000000e+00 -1.932720000000000022e-04 2.244109999999999898e-04 1.070078087999999994e+01
1.046998212399999950e+01 0.000000000000000000e+00 0.000000000000000000e+00 -6.972768999999999495e-02 1.046976927999999951e+01 0.000000000000000000e+00 -1.947700000000000071e-04 2.261499999999999947e-04 1.078372602900000032e+01
1.041676917200000041e+01 0.000000000000000000e+00 0.000000000000000000e+00 -6.937330399999999675e-02 1.041655740999999935e+01 0.000000000000000000e+00 -1.937800000000000048e-04 2.250010000000000096e-04 1.072891849600000036e+01
9.909014568999999995e+00 0.000000000000000000e+00 0.000000000000000000e+00 -6.599177400000000304e-02 9.908813129000000330e+00 0.000000000000000000e+00 -1.843349999999999893e-04 2.140330000000000021e-04 1.020594849699999962e+01
1.044616221699999947e+01 0.000000000000000000e+00 0.000000000000000000e+00 -6.956905500000000464e-02 1.044594985700000045e+01 0.000000000000000000e+00 -1.943269999999999980e-04 2.256360000000000060e-04 1.075919233399999975e+01
1.033265716200000028e+01 0.000000000000000000e+00 0.000000000000000000e+00 -6.881313699999999645e-02 1.033244710900000030e+01 0.000000000000000000e+00 -1.922159999999999906e-04 2.231839999999999963e-04 1.064228598100000056e+01
1.043649050900000042e+01 0.000000000000000000e+00 0.000000000000000000e+00 -6.950464400000000431e-02 1.043627834599999993e+01 0.000000000000000000e+00 -1.941470000000000099e-04 2.254269999999999950e-04 1.074923080299999967e+01
1.020127231600000073e+01 0.000000000000000000e+00 0.000000000000000000e+00 -6.793814400000000586e-02 1.020106493499999978e+01 0.000000000000000000e+00 -1.897719999999999984e-04 2.203460000000000076e-04 1.050696405200000072e+01
1.041570007300000000e+01 0.000000000000000000e+00 0.000000000000000000e+00 -6.936618399999999740e-02 1.041548833300000076e+01 0.000000000000000000e+00 -1.937610000000000038e-04 2.249779999999999998e-04 1.072781735999999952e+01
1.028812850699999970e+01 0.000000000000000000e+00 0.000000000000000000e+00 -6.851658700000000379e-02 1.028791936000000007e+01 0.000000000000000000e+00 -1.913870000000000024e-04 2.222220000000000011e-04 1.059642297899999974e+01
1.036046311199999970e+01 0.000000000000000000e+00 0.000000000000000000e+00 -6.899831900000000240e-02 1.036025249499999923e+01 0.000000000000000000e+00 -1.927329999999999994e-04 2.237849999999999995e-04 1.067092516599999996e+01
1.041876765700000007e+01 0.000000000000000000e+00 0.000000000000000000e+00 -6.938661399999999924e-02 1.041855585499999926e+01 0.000000000000000000e+00 -1.938180000000000068e-04 2.250440000000000090e-04 1.073097686800000083e+01
1.032150107900000080e+01 0.000000000000000000e+00 0.000000000000000000e+00 -6.873883999999999550e-02 1.032129125400000014e+01 0.000000000000000000e+00 -1.920079999999999953e-04 2.229429999999999964e-04 1.063079559500000038e+01
9.915531075000000527e+00 0.000000000000000000e+00 0.000000000000000000e+00 -6.603517300000000256e-02 9.915329502000000517e+00 0.000000000000000000e+00 -1.844559999999999971e-04 2.141739999999999996e-04 1.021266027799999954e+01
1.042957278699999968e+01 0.000000000000000000e+00 0.000000000000000000e+00 -6.945857299999999568e-02 1.042936076400000012e+01 0.000000000000000000e+00 -1.940190000000000003e-04 2.252769999999999914e-04 1.074210578399999960e+01
1.039771972900000030e+01 0.000000000000000000e+00 0.000000000000000000e+00 -6.924643900000000685e-02 1.039750835399999929e+01 0.000000000000000000e+00 -1.934259999999999875e-04 2.245890000000000007e-04 1.070929821600000054e+01
1.036190398399999957e+01 0.000000000000000000e+00 0.000000000000000000e+00 -6.900791400000000353e-02 1.036169333700000017e+01 0.000000000000000000e+00 -1.927599999999999908e-04 2.238159999999999998e-04 1.067240921500000006e+01
1.035790035099999962e+01 0.000000000000000000e+00 0.000000000000000000e+00 -6.898125099999999343e-02 1.035768978499999982e+01 0.000000000000000000e+00 -1.926850000000000025e-04 2.237290000000000123e-04 1.066828560899999978e+01
1.042432686199999914e+01 0.000000000000000000e+00 0.000000000000000000e+00 -6.942363699999999638e-02 1.042411494599999955e+01 0.000000000000000000e+00 -1.939210000000000022e-04 2.251640000000000011e-04 1.073670266000000062e+01
1.024262003700000001e+01 0.000000000000000000e+00 0.000000000000000000e+00 -6.821351100000000445e-02 1.024241181500000053e+01 0.000000000000000000e+00 -1.905409999999999905e-04 2.212390000000000005e-04 1.054955080100000053e+01
1.031743814400000048e+01 0.000000000000000000e+00 0.000000000000000000e+00 -6.871178199999999903e-02 1.031722840099999949e+01 0.000000000000000000e+00 -1.919330000000000070e-04 2.228549999999999932e-04 1.062661091000000013e+01
9.919040347999999341e+00 0.000000000000000000e+00 0.000000000000000000e+00 -6.605854399999999682e-02 9.918838704000000561e+00 0.000000000000000000e+00 -1.845209999999999906e-04 2.142500000000000036e-04 1.021627471000000043e+01
1.030382676099999983e+01 0.000000000000000000e+00 0.000000000000000000e+00 -6.862113300000000082e-02 1.030361729400000037e+01 0.000000000000000000e+00 -1.916789999999999922e-04 2.225609999999999991e-04 1.061259164700000035e+01
1.043864353100000031e+01 0.000000000000000000e+00 0.000000000000000000e+00 -6.951898200000000694e-02 1.043843132399999973e+01 0.000000000000000000e+00 -1.941869999999999892e-04 2.254729999999999874e-04 1.075144834299999985e+01
9.907061602000000633e+00 0.000000000000000000e+00 0.000000000000000000e+00 -6.597876799999999320e-02 9.906860201000000643e+00 0.000000000000000000e+00 -1.842980000000000031e-04 2.139909999999999913e-04 1.020393700800000047e+01
1.044888655799999988e+01 0.000000000000000000e+00 0.000000000000000000e+00 -6.958719900000000236e-02 1.044867414299999986e+01 0.000000000000000000e+00 -1.943779999999999879e-04 2.256950000000000134e-04 1.076199831299999943e+01
1.038650132299999918e+01 0.000000000000000000e+00 0.000000000000000000e+00 -6.917172700000000229e-02 1.038629017599999926e+01 0.000000000000000000e+00 -1.932170000000000035e-04 2.243470000000000121e-04 1.069774363900000047e+01
1.033111252900000032e+01 0.000000000000000000e+00 0.000000000000000000e+00 -6.880284999999999873e-02 1.033090250799999943e+01 0.000000000000000000e+00 -1.921869999999999948e-04 2.231509999999999917e-04 1.064069506200000070e+01
