-9.298418946799999958e+02
-9.424781636300000400e+02
-9.379518423099999609e+02
-9.154038448500000413e+02
-9.377044988300000341e+02
-9.195915222700000413e+02
-9.441421147300000030e+02
-9.358725986499999863e+02
-9.204069900299999745e+02
-9.428483335900000384e+02
-9.127888606499999469e+02
-9.348407330400000319e+02
-9.259645414699999719e+02
-9.133629855100000441e+02
-9.331585525799999914e+02
-9.154367878499999733e+02
-9.210640115100000003e+02
-9.075684090099999821e+02
-9.254094338099999959e+02
-9.423907292599999437e+02
-9.251348705299999438e+02
-9.078950327600000492e+02
-9.182938626200000272e+02
-9.374459598800000322e+02
-9.141602972900000168e+02
-9.325367308999999523e+02
-9.191180403700000170e+02
-9.432721225699999650e+02
-9.334252024300000130e+02
-9.150237431199999492e+02
-9.124706988299999466e+02
-9.376115867800000387e+02
-9.335035352400000193e+02
-9.131447407599999906e+02
-9.066725680399999874e+02
-9.266241387400000349e+02
-9.222058460099999593e+02
-9.349384107700000186e+02
-9.170324427699999887e+02
-9.335033635800000411e+02
-9.249062851500000306e+02
-9.333718035499999814e+02
-9.330012198199999602e+02
-9.346079612300000008e+02
-9.251849564200000486e+02
-9.191690696699999990e+02
-9.321588783700000249e+02
-9.171997181299999511e+02
-9.148172577000000274e+02
-9.193108400200000005e+02
-9.213323255000000245e+02
-9.140520249200000080e+02
-9.348269183200000043e+02
-9.344762472200000047e+02
-9.282481944200000044e+02
-9.151997808500000247e+02
-9.188414726099999825e+02
-9.376687697200000002e+02
-9.380429353800000172e+02
-9.362610339999999951e+02
-9.354334561599999915e+02
-9.196349883499999578e+02
-9.153282254299999749e+02
-9.171423061100000496e+02
-9.235431745900000351e+02
-9.284609448400000247e+02
-9.113480488200000309e+02
-9.420938065000000279e+02
-9.234992481399999633e+02
-9.214006200799999533e+02
-9.333114149299999553e+02
-9.128545992399999705e+02
-9.240466555000000426e+02
-9.378433456999999862e+02
-9.381001317300000437e+02
-9.328476024499999539e+02
-9.319839295499999707e+02
-9.346827992400000085e+02
-9.332285707099999854e+02
-9.397072616799999878e+02
-9.222343794399999979e+02
-9.324376755099999627e+02
-9.108540011000000050e+02
-9.336759733999999753e+02
-9.436005349600000045e+02
-9.227254900399999542e+02
-9.191804551699999593e+02
-9.374781407399999580e+02
-9.146874014200000147e+02
-9.328536775600000510e+02
-9.079477386800000431e+02
-9.337218008099999906e+02
-9.127929235899999867e+02
-9.128749933999999939e+02
-9.379220729400000209e+02
-9.115939105200000085e+02
-9.102146626999999626e+02
-9.128724952699999449e+02
-9.165709985299999971e+02
-9.177490534500000194e+02
