5.652070000000000149e-01 -3.748500000000000165e-01 2.186455000000000037e+00 -2.134466999999999892e+00 8.184810000000000141e-01 -9.495620000000000172e-01 2.177487000000000172e+00 -7.072969999999999535e-01 3.388570000000000082e+00 3.548939999999999872e-01 6.056420000000000137e-01 -1.094279999999999975e-01 -1.485025000000000039e+00 7.165569999999999995e-01 -4.105119999999999880e-01 4.147173999999999694e+00 -9.908820000000000405e-01 -1.273995999999999906e+00 2.540341000000000182e+00 -5.722460000000000324e-01 1.807236000000000065e+00 1.694009999999999960e-01 6.044620000000000548e-01 6.737520000000000175e-01 1.025673000000000057e+00 1.175120000000000053e-01 -1.986701000000000050e+00 3.040175000000000072e+00 -5.471530000000000005e-01 -2.203044999999999920e+00 1.552864000000000022e+00 -3.820108999999999977e+00 4.627829999999999999e-01 6.221259999999999568e-01 2.959870000000000001e-01 5.404240000000000155e-01 -1.030861000000000027e+00 -1.055249000000000104e+00 9.538609999999999589e-01 2.219568000000000207e+00 -1.903890000000000027e-01 -2.631290000000000018e-01 1.284885999999999973e+00 5.808200000000000029e-01 -4.045599999999999891e-02 2.360778999999999961e+00 -1.960220000000000073e+00 4.864789999999999948e-01 1.208838000000000079e+00 1.439756999999999953e+00 -3.751539999999999875e-01 -1.039948000000000095e+00 1.784343999999999930e+00 -2.228209999999999913e-01 6.353299999999999503e-01 -1.154303999999999997e+00 -1.465862999999999916e+00 5.175159999999999760e-01 -3.032370999999999928e+00 -2.171625000000000139e+00 1.500185000000000102e+00 1.891917000000000071e+00 1.669947000000000070e+00 -9.566769999999999996e-01 -4.930510000000000170e-01 -1.238404000000000060e+00 -2.024049999999999905e+00 -4.055933999999999706e+00 -4.520620000000000194e-01 5.020759999999999668e-01 -4.161360000000000059e-01 -1.942780000000000062e-01 -1.195718000000000059e+00 2.314773000000000192e+00 -2.714700000000000099e-02 -4.206055000000000099e+00 2.991469999999999962e-01 -1.039220000000000005e-01 -2.526459999999999817e-01 -9.941710000000000269e-01 -1.283835999999999977e+00 8.526209999999999622e-01 -1.461929000000000034e+00 -1.332616999999999940e+00 8.723229999999999595e-01 -1.905620000000000092e-01 3.596187000000000022e+00 -3.042719999999999869e-01 -1.760180999999999996e+00 -7.740550000000000486e-01 -7.583900000000000086e-01 2.307919999999999972e-01 8.634990000000000165e-01 -1.154895000000000005e+00 1.449421999999999988e+00 1.967214999999999936e+00 -1.910290000000000044e-01 -1.559692999999999996e+00 4.816659999999999831e-01 -1.172880000000000034e-01 7.105569999999999942e-01 1.105204000000000075e+00 -1.769174000000000024e+00 1.067909999999999970e-01 -1.443057999999999952e+00 1.329358999999999957e+00 3.006590000000000096e+00 -4.538510000000000044e-01 -1.304885999999999990e+00 2.014838000000000129e+00 9.562800000000000189e-01 2.915348999999999968e+00 -3.477930000000000188e-01 1.751332000000000111e+00 3.649985000000000035e+00 5.869392999999999638e+00 -3.363129999999999731e-01 -2.173339999999999994e-01 2.067054999999999865e+00 -9.394099999999999673e-02 2.431099999999999817e+00 -1.074532999999999960e+00 1.076214000000000004e+00 -1.705621999999999971e+00 -1.903982000000000063e+00 -1.213251000000000079e+00 -8.743520000000000181e-01 3.546300000000000008e-01 -3.139451999999999909e+00 1.746367999999999920e+00 -5.080829999999999513e-01 1.444930999999999965e+00 -1.276583000000000023e+00 -8.661929999999999907e-01 1.216557000000000111e+00 7.579360000000000541e-01 -8.431009999999999893e-01 3.542599999999999916e-02 -2.888104999999999922e+00 1.368794999999999984e+00 -8.659059999999999535e-01 -1.233335000000000070e+00 -7.625830000000000108e-01 1.384913000000000061e+00 2.223794999999999966e+00 1.087480999999999920e+00 1.036005999999999982e+00 1.681805999999999912e+00 -1.002027000000000001e+00 -1.172341000000000077e+00 -5.882290000000000019e-01 -1.274067999999999978e+00 -2.461049999999999904e-01 -1.158603000000000049e+00 -6.344729999999999537e-01 -5.061069999999999736e-01 1.133604999999999974e+00 -3.543089999999999851e-01 2.542460000000000275e-01 1.014823000000000031e+00 -6.452799999999999647e-01 -1.675589999999999913e+00 -1.551690000000000014e-01 -1.165602000000000027e+00 -8.185710000000000486e-01 -4.867830000000000212e-01 6.899819999999999842e-01 -1.683081000000000049e+00 -2.441821000000000019e+00 3.665945999999999927e+00 2.104388999999999843e+00 -2.811930000000000263e-01 3.860350000000000170e-01 5.192510000000000181e-01 -1.435351999999999961e+00 4.225079999999999947e-01 -2.951920000000000099e-01 1.032724999999999893e+00 1.721189000000000080e+00 -3.767119999999999913e-01 -2.200953000000000159e+00 3.141378000000000004e+00 1.150384000000000073e+00 -3.926000000000000323e-02 -2.271726000000000134e+00 2.351050000000000084e-01 -1.742279999999999940e-01 4.560750000000000082e-01 2.900018999999999902e+00 -4.627279999999999727e-01 7.462929999999999842e-01 -1.351980000000000126e-01 -7.447319999999999496e-01 1.354449000000000014e+00 -8.557770000000000099e-01 -7.611409999999999565e-01 5.827430000000000110e-01 -1.341169000000000056e+00 2.168556999999999846e+00 2.329179999999999862e-01 4.330930000000000057e-01 1.627766999999999964e+00 -2.960275000000000212e+00 1.868454999999999977e+00 -6.807480000000000198e-01 -2.179840000000000111e-01 6.109909999999999508e-01 1.769070000000000087e-01 6.899030000000000440e-01 1.349390000000000034e-01 1.953840000000000021e-01 4.019209999999999727e-01 7.744710000000000205e-01 -1.296456999999999971e+00 1.186865000000000059e+00 3.794409999999999727e-01 5.393869999999999498e-01 -3.910950000000000260e-01 -4.401200000000000112e-01 1.431691999999999965e+00 -2.596303999999999945e+00 6.705600000000000449e-01 2.415730000000000099e-01 -1.962544000000000066e+00 -2.944899999999999948e-02 -1.894997999999999960e+00 4.437510000000000066e-01 -1.250971999999999973e+00 7.229189999999999783e-01 5.130090000000000483e-01 -1.130330999999999975e+00 -6.952359999999999651e-01 -1.370344999999999924e+00 5.310190000000000188e-01 -5.781800000000000134e-02 5.182060000000000555e-01 -2.568799999999999903e-02 -1.099801999999999946e+00 3.174939999999999984e-01 9.400899999999999812e-01 5.372600000000000292e-02 -2.209499999999999797e+00 8.795230000000000548e-01 -1.578019999999999978e+00 -1.503913999999999973e+00 -2.750489999999999879e-01 -1.725964999999999971e+00 6.351520000000000499e-01 -4.852159999999999807e-01 5.245300000000000518e-01 1.233352000000000004e+00 6.900279999999999747e-01 1.103194999999999926e+00 1.268717000000000095e+00 2.716830000000000078e-01 -3.805800000000000155e-02 1.102923000000000098e+00 3.122610000000000108e-01 -4.547220000000000151e-01 -6.130900000000000238e-02 -1.676822999999999952e+00 -3.390500000000000180e-01 -5.532299999999999718e-02 3.855759999999999743e-01 -2.694074000000000080e+00 1.353394999999999904e+00 -5.148479999999999723e-01 -1.434409999999999963e+00 3.245739999999999736e-01 1.055536000000000030e+00 6.791610000000000147e-01 -2.589580000000000215e-01 -1.615278999999999909e+00 -1.897890000000000132e-01 -6.870969999999999578e-01 -1.409062000000000037e+00 -2.712213999999999903e+00 -2.231320000000000192e+00 -1.806413000000000046e+00 -1.588845000000000063e+00 2.371932000000000151e+00 -1.996518999999999933e+00
-7.123509999999999565e-01 1.548016000000000059e+00 2.217300999999999966e+00 1.721109999999999862e-01 1.883580000000000032e+00 -2.010991999999999891e+00 6.701209999999999667e-01 1.960030000000000105e-01 4.173330000000000095e-01 -1.551439000000000012e+00 2.498593000000000064e+00 -1.926881000000000066e+00 -9.241759999999999975e-01 -7.645690000000000541e-01 -6.510939999999999506e-01 4.290740000000000109e-01 3.928554000000000102e+00 -1.245401999999999898e+00 -6.183670000000000000e-01 1.823007999999999962e+00 -1.782227999999999923e+00 -1.749370000000000092e-01 -1.337282000000000082e+00 -1.229845999999999995e+00 4.743689999999999851e-01 2.135489999999999888e-01 -1.154608999999999996e+00 4.458420000000000161e-01 -4.567169999999999841e-01 -1.054241999999999901e+00 8.165480000000000516e-01 7.389879999999999782e-01 2.940800000000000081e-01 2.309299999999999964e-01 -2.154000000000000012e-02 8.958009999999999584e-01 -2.076175999999999799e+00 -5.400819999999999510e-01 3.320040000000000213e-01 2.061833000000000027e+00 -2.646198000000000050e+00 -2.991530000000000022e+00 9.689389999999999947e-01 3.019260000000000277e-01 4.044590000000000130e-01 5.774800000000000072e-02 1.588392999999999944e+00 -5.354740000000000055e-01 7.643950000000000466e-01 1.928957999999999950e+00 1.691421000000000063e+00 8.718129999999999491e-01 1.774480999999999975e+00 2.896599999999999869e-02 -1.173534000000000077e+00 6.602240000000000331e-01 -5.703749999999999654e-01 -1.399450000000000138e-01 -1.144252999999999965e+00 -1.872820000000000040e-01 1.544907999999999948e+00 -1.135639999999999983e-01 -2.481319999999999915e-01 -4.143510000000000248e-01 1.493217000000000017e+00 3.722340000000000093e-01 -8.871199999999999919e-02 -5.075999999999999783e-03 2.458430000000000060e-01 -2.609119999999999773e-01 6.373480000000000256e-01 -4.105949999999999878e-01 -5.486820000000000030e-01 6.716459999999999653e-01 -1.385919999999999930e-01 2.979209999999999914e-01 -4.984739999999999727e-01 2.117137000000000047e+00 -1.306484999999999896e+00 -1.569687999999999972e+00 1.489835000000000020e+00 7.876800000000000468e-02 9.502300000000000191e-01 6.771369999999999889e-01 2.067581999999999809e+00 4.371200000000000085e-01 -1.912876999999999938e+00 1.417569999999999941e-01 -1.961099999999999996e-02 2.335782000000000025e+00 8.482920000000000460e-01 3.591059999999999808e-01 1.932882999999999907e+00 -1.028054999999999941e+00 3.310918000000000028e+00 -3.356900000000000162e-02 -7.334169999999999856e-01 7.058000000000000038e-03 -4.992469999999999963e-01 -7.196529999999999871e-01 -9.938199999999999812e-02 1.156593999999999900e+00 1.918975000000000097e+00 -1.196679999999999966e+00 2.888560000000000016e-01 1.275600000000000067e-01 1.242260000000000031e-01 -9.301270000000000371e-01 6.761350000000000415e-01 3.318289999999999851e-01 -2.016300000000000037e-01 -7.970460000000000322e-01 1.484360000000000124e-01 8.064660000000000162e-01 -7.699049999999999505e-01 6.836870000000000447e-01 -2.505269999999999997e-01 -3.952260000000000217e-01 2.652669999999999750e-01 9.833400000000000474e-02 -1.612699999999999967e-01 1.577530000000000043e-01 -4.025369999999999782e-01 -2.097885000000000222e+00 -2.302674000000000110e+00 1.355331000000000063e+00 -8.442969999999999642e-01 -2.208110000000000073e-01 2.458299999999999930e-01 2.881799999999999987e-02 7.999739999999999629e-01 1.136158999999999919e+00 6.507270000000000554e-01 -3.098350000000000271e-01 -9.837979999999999503e-01 -1.443961000000000050e+00 -3.314880000000000049e-01 1.895982999999999974e+00 -2.294899999999999995e-01 -1.537852999999999914e+00 -6.860690000000000399e-01 -3.290980000000000016e-01 4.994629999999999903e-01 -3.984880000000000089e-01 -1.894416000000000100e+00 1.432534999999999892e+00 -1.080880999999999981e+00 -3.240669999999999940e-01 2.498350000000000015e-01 1.514399999999999948e-02 -1.603000000000000041e-03 -1.627353000000000049e+00 -5.718569999999999487e-01 2.974600000000000161e-02 9.807200000000000639e-02 -2.301060000000000050e-01 1.909753000000000034e+00 4.866269999999999762e-01 -6.197099999999999831e-02 -1.913672999999999957e+00 -6.745250000000000412e-01 1.057026999999999939e+00 -9.102970000000000228e-01 -1.150098999999999982e+00 -1.518172999999999995e+00 -1.512960000000000083e+00 -1.472571000000000074e+00 2.562849999999999850e-01 -1.230245000000000033e+00 -4.253370000000000206e-01 -3.812900000000000317e-02 1.143243000000000009e+00 1.232570000000000054e-01 2.059410000000000129e-01 -5.042079999999999895e-01 8.427999999999999936e-01 -1.242648999999999893e+00 4.801509999999999945e-01 5.087920000000000220e-01 -2.115000000000000126e-03 1.149998000000000076e+00 -3.409019999999999828e-01 3.317089999999999761e-01 -8.414730000000000265e-01 -3.236089999999999800e-01 8.987270000000000536e-01 -5.651699999999999779e-02 -4.119470000000000076e-01 -1.589039999999999897e-01 8.113909999999999734e-01 -1.094047999999999909e+00 1.101626999999999912e+00 9.485170000000000545e-01 -5.128120000000000456e-01 -9.739579999999999904e-01 8.740609999999999769e-01 -6.405279999999999863e-01 2.116477999999999859e+00 6.943880000000000052e-01 -2.053205999999999865e+00 -1.255850000000000022e-01 -1.726939999999999920e+00 3.214449999999999807e-01 8.564209999999999878e-01 5.657839999999999536e-01 -1.674730000000000107e-01 1.754189999999999916e-01 1.168514000000000053e+00 -6.797779999999999934e-01 -5.043429999999999858e-01 6.567960000000000464e-01 -1.192423999999999928e+00 1.378749999999999976e-01 -5.543430000000000302e-01 9.710609999999999520e-01 -1.181707000000000063e+00 1.039579999999999949e-01 -1.083339999999999997e-01 -4.945539999999999936e-01 7.677089999999999748e-01 -1.129819999999999991e-01 1.408037999999999901e+00 -6.223100000000000159e-02 -9.693439999999999834e-01 -1.233344999999999914e+00 3.284499999999999920e-02 -1.356449999999999878e-01 8.558470000000000244e-01 6.376349999999999518e-01 -1.247379999999999933e+00 1.261835999999999958e+00 3.704029999999999823e-01 -1.507600999999999969e+00 1.040675000000000017e+00 9.298600000000000199e-01 -3.988889999999999936e-01 1.917840000000000100e-01 5.110080000000000178e-01 -1.181337000000000081e+00 8.347930000000000073e-01 5.457800000000000429e-01 -3.159580000000000166e-01 -2.518250000000000210e-01 7.198499999999999899e-01 -3.871160000000000156e-01 -7.583820000000000006e-01 -4.557350000000000012e-01 9.632460000000000466e-01 -5.641279999999999628e-01 1.136435000000000084e+00 -9.683500000000000441e-01 -9.667499999999999705e-02 1.160449999999999954e-01 -1.000167000000000028e+00 -6.991999999999999604e-02 7.792860000000000342e-01 9.408039999999999736e-01 -5.241190000000000015e-01 -7.953000000000000347e-02 7.026769999999999960e-01 -4.557100000000000040e-02 -1.729870000000000019e-01 -9.982720000000000482e-01 -1.191087000000000007e+00 -2.877290000000000125e-01 -7.309010000000000229e-01 -1.758409999999999973e-01 -6.979049999999999976e-01 -1.168897999999999993e+00 -1.433850000000000124e-01 7.416799999999999782e-02 7.691559999999999508e-01 -7.408510000000000373e-01 -2.491029999999999911e-01 -4.628419999999999757e-01 1.453103000000000034e+00 -4.541499999999999981e-01 -1.501270000000000104e-01 -1.294490000000000085e-01 -3.300800000000000262e-02 1.354673999999999934e+00 -8.884400000000000630e-02
-2.624259999999999926e-01 -2.875159999999999938e-01 9.382009999999999517e-01 -9.959860000000000380e-01 7.324680000000000080e-01 2.147999999999999909e-02 1.412950000000000039e-01 7.067240000000000189e-01 -4.964359999999999884e-01 8.104289999999999550e-01 9.916449999999999987e-01 4.743680000000000119e-01 3.103585999999999956e+00 2.743929000000000062e+00 1.782087999999999894e+00 -7.104099999999999859e-01 9.379300000000000415e-01 -1.730364000000000013e+00 8.784760000000000346e-01 2.147729999999999917e-01 1.194499999999999895e+00 2.199689999999999979e-01 -4.760920000000000152e-01 -8.731899999999999384e-02 1.233055999999999930e+00 -4.491780000000000217e-01 -2.584850000000000203e-01 1.319846999999999992e+00 -6.427899999999999725e-01 -2.034980000000000122e-01 -8.989559999999999773e-01 8.831430000000000113e-01 -1.360727999999999938e+00 1.524610000000000132e-01 1.603215999999999974e+00 1.204587000000000074e+00 1.109261999999999970e+00 -1.579458999999999946e+00 8.346699999999999953e-02 -1.983010000000000050e-01 -1.630000000000000047e-04 -8.341499999999999471e-01 -1.150266000000000011e+00 1.888819999999999943e-01 -2.702274000000000065e+00 -4.069799999999999807e-02 -8.008239999999999803e-01 -3.999090000000000145e-01 8.027840000000000531e-01 -4.796509999999999940e-01 4.830470000000000041e-01 -1.500474000000000085e+00 1.053574000000000011e+00 -4.467349999999999932e-01 -7.702419999999999822e-01 3.027059999999999751e-01 1.369367000000000001e+00 -1.483749999999999902e+00 -6.897600000000000398e-01 1.188086999999999893e+00 -5.002100000000000296e-02 -1.265427999999999997e+00 -1.965821999999999958e+00 5.778599999999999709e-02 1.567055000000000087e+00 3.119219999999999771e-01 -4.428989999999999871e-01 -8.881419999999999870e-01 1.734955999999999943e+00 -4.763169999999999904e-01 -2.644600000000000076e-02 2.158516000000000101e+00 -1.246464000000000016e+00 8.556749999999999634e-01 1.149489999999999901e+00 1.509838000000000013e+00 -4.954680000000000195e-01 1.824199999999999988e-01 1.579604000000000008e+00 1.056160000000000015e-01 -4.806830000000000269e-01 -1.521840999999999999e+00 5.259400000000000186e-02 1.411424000000000012e+00 -2.387700000000000100e-01 7.989159999999999595e-01 -1.140541999999999945e+00 1.289927999999999964e+00 -2.082491999999999788e+00 5.243149999999999755e-01 1.374042999999999903e+00 3.827220000000000066e-01 1.401215000000000099e+00 1.017781000000000047e+00 -1.812570000000000014e+00 1.084236999999999895e+00 6.624330000000000496e-01 -5.702120000000000521e-01 1.978331999999999979e+00 -5.189019999999999744e-01 1.085744999999999960e+00 1.045932000000000084e+00 -6.887090000000000156e-01 -5.272299999999999903e-02 -2.036487000000000158e+00 2.100080000000000002e-01 -3.635909999999999975e-01 7.225500000000000256e-01 1.178444999999999965e+00 -1.396241000000000065e+00 7.294929999999999470e-01 -3.517489999999999783e-01 2.803200000000000136e-01 -2.231120000000000214e+00 1.633340000000000070e-01 9.487179999999999502e-01 -2.036880000000000024e+00 2.095430000000000070e-01 5.163879999999999582e-01 -1.068189999999999973e-01 -1.302826000000000040e+00 -1.661980000000000013e+00 -1.705672000000000077e+00 2.672709999999999808e-01 4.569909999999999806e-01 8.080249999999999932e-01 -7.682050000000000267e-01 -1.012224000000000013e+00 6.296699999999999520e-02 -8.447179999999999689e-01 -4.127080000000000193e-01 1.032819999999999988e-01 -9.724129999999999718e-01 8.080270000000000508e-01 -2.456430000000000002e-01 -9.373590000000000533e-01 2.276689000000000185e+00 1.624039999999999928e-01 5.600600000000000023e-01 3.939389999999999836e-01 -1.240591999999999917e+00 -6.096129999999999605e-01 1.185699999999999948e-02 6.837950000000000417e-01 7.226259999999999906e-01 -1.025533999999999946e+00 -6.304880000000000484e-01 -1.525036000000000058e+00 9.029509999999999481e-01 -2.071914000000000033e+00 8.679980000000000473e-01 -3.192980000000000262e-01 -1.303272999999999904e+00 1.030963999999999992e+00 -4.725170000000000203e-01 1.553995999999999933e+00 -1.320654999999999912e+00 -1.262116999999999933e+00 -1.206685000000000008e+00 -1.386700000000000085e-02 1.552346999999999921e+00 -1.578259999999999941e-01 3.256490000000000218e-01 -1.145146999999999915e+00 -9.397020000000000373e-01 -3.662659999999999805e-01 -5.120700000000000252e-02 -1.708261000000000029e+00 4.588889999999999914e-01 7.194899999999999629e-01 -1.338297000000000070e+00 -7.542600000000000693e-02 -7.900150000000000228e-01 3.806300000000000239e-01 4.059030000000000138e-01 -7.070260000000000433e-01 1.293865000000000043e+00 -8.157320000000000126e-01 -1.005921000000000065e+00 2.709794000000000036e+00 -4.167759999999999798e-01 1.474199999999999990e-02 -8.275740000000000318e-01 -5.958999999999999887e-03 -1.806535000000000002e+00 1.525546999999999986e+00 -6.713800000000000323e-02 3.818889999999999785e-01 -2.700629999999999975e-01 3.858989999999999920e-01 8.444000000000000117e-03 2.347636000000000056e+00 -3.152840000000000087e-01 8.697700000000000431e-01 -1.190412000000000026e+00 -9.975900000000000045e-02 5.264269999999999783e-01 -4.433570000000000011e-01 -2.909368999999999872e+00 1.170409000000000033e+00 1.236391999999999936e+00 2.350949999999999984e-01 5.003739999999999855e-01 -4.283129999999999993e-01 -1.003470000000000084e+00 9.297990000000000421e-01 9.904180000000000206e-01 1.558859999999999968e-01 1.066100000000000034e-02 -8.310830000000000162e-01 4.240010000000000168e-01 1.577407000000000004e+00 9.041799999999999837e-02 -1.161316999999999933e+00 -2.718548999999999882e+00 -3.589089999999999780e-01 6.699960000000000360e-01 1.265932999999999975e+00 7.622200000000000086e-01 -6.810749999999999860e-01 6.139520000000000532e-01 -1.698560000000000070e-01 -3.065140000000000087e-01 -9.272350000000000314e-01 8.811099999999999488e-02 5.006180000000000074e-01 -8.589989999999999570e-01 1.390535000000000077e+00 2.939860000000000251e-01 1.001478000000000090e+00 4.164439999999999809e-01 -1.123912000000000022e+00 1.039809999999999901e+00 8.136590000000000211e-01 -8.821029999999999704e-01 4.994500000000000051e-01 1.980179999999999996e-01 2.788997999999999866e+00 -1.970115999999999978e+00 -1.514737000000000000e+00 -5.110740000000000283e-01 -1.991870000000000029e-01 -9.107180000000000275e-01 -5.275910000000000322e-01 4.697749999999999981e-01 7.889909999999999979e-01 6.186559999999999837e-01 -1.917800000000000060e-02 -7.482500000000000262e-02 -2.678000000000000172e-02 -1.689311999999999925e+00 -1.969678999999999958e+00 6.715090000000000225e-01 1.273439999999999905e+00 -6.807999999999999816e-03 4.729579999999999895e-01 -1.090789000000000009e+00 -7.064019999999999744e-01 -6.588439999999999852e-01 -3.394477000000000189e+00 -7.543980000000000130e-01 7.662579999999999947e-01 2.715650000000000008e-01 -1.457816999999999918e+00 2.570979999999999932e-01 6.094920000000000337e-01 1.037017999999999995e+00 6.684959999999999791e-01 2.760799999999999921e-01 -1.104031999999999902e+00 4.815269999999999828e-01 1.794560000000000044e-01 -7.246299999999999963e-02 -2.061129999999999907e-01 -1.197853999999999974e+00 1.883537000000000017e+00 1.112092000000000080e+00 1.335552000000000072e+00 3.302419999999999800e-01 -1.639700000000000046e-01 1.195732999999999935e+00 -6.738889999999999603e-01
-1.026218000000000075e+00 4.293730000000000047e-01 -3.178760000000000030e+00 -8.446900000000000519e-01 1.425964000000000009e+00 -2.363017000000000145e+00 1.098878999999999939e+00 3.718987999999999960e+00 -2.283269999999999911e+00 3.684499999999999997e-01 -1.573377000000000026e+00 4.508050000000000113e-01 4.621900000000000314e-02 -8.821600000000000275e-02 2.743470999999999993e+00 -1.441842000000000068e+00 -1.008509999999999962e-01 -1.489443000000000072e+00 -1.203573000000000004e+00 -2.314224999999999977e+00 1.657027999999999945e+00 -1.999544999999999906e+00 -9.741959999999999509e-01 -2.036963000000000079e+00 5.569999999999999951e-02 -3.242345999999999950e+00 2.240286000000000222e+00 -1.426090999999999998e+00 -7.866689999999999516e-01 -1.232680000000000026e-01 9.105900000000000105e-01 1.748280999999999974e+00 9.155389999999999917e-01 -1.319274999999999975e+00 -6.693740000000000245e-01 5.907400000000000428e-01 1.742216999999999905e+00 8.956840000000000357e-01 3.507799999999999807e-01 1.751492999999999967e+00 2.738820000000000143e-01 2.374499999999999875e-02 -1.706477999999999939e+00 1.149129000000000067e+00 2.332732000000000028e+00 2.337988999999999873e+00 3.555989999999999984e-01 3.207322000000000006e+00 7.556200000000000416e-02 -1.767900000000000027e-02 6.309730000000000061e-01 7.119900000000000118e-01 -3.132578999999999780e+00 4.847870000000000235e-01 -3.762170999999999932e+00 2.532039999999999846e-01 -3.463800000000000212e-01 -8.947009999999999685e-01 -1.200677999999999912e+00 -9.952910000000000368e-01 -7.658580000000000387e-01 -1.906276999999999999e+00 6.456140000000000212e-01 1.335679999999999923e-01 -1.040051999999999977e+00 1.605671000000000070e+00 -3.171470000000000122e-01 5.941899999999999959e-01 -4.807750000000000079e-01 2.202075999999999922e+00 -3.129221999999999948e+00 2.798680000000000057e-01 2.588168000000000024e+00 -3.008961000000000219e+00 9.696939999999999449e-01 -1.623277000000000081e+00 3.407830000000000026e-01 8.767970000000000486e-01 4.826999999999999694e-03 -4.938440000000000052e-01 2.270417999999999825e+00 -3.551028000000000073e+00 -1.163659999999999917e+00 -1.529012000000000038e+00 9.264300000000000312e-02 -4.344967999999999719e+00 1.307431000000000010e+00 -4.319760000000000266e-01 1.888878000000000057e+00 5.806820000000000315e-01 -4.847900000000000126e-02 -1.775050999999999934e+00 -2.854880999999999780e+00 2.253823000000000132e+00 1.952119999999999966e-01 -1.827417000000000069e+00 1.627002000000000059e+00 -2.274664000000000019e+00 1.764550000000000007e-01 -6.428350000000000453e-01 9.607780000000000209e-01 1.333769999999999900e+00 8.597939999999999472e-01 7.385129999999999750e-01 -1.306831999999999994e+00 8.354819999999999469e-01 1.324885000000000090e+00 3.886599999999999777e-02 -1.159580000000000055e-01 -6.429439999999999600e-01 -8.946250000000000036e-01 -3.170620000000000105e-01 2.255659999999999887e-01 -6.461360000000000436e-01 -3.555130000000000234e-01 -1.015439999999999898e+00 6.825949999999999518e-01 -1.068173000000000039e+00 2.368325000000000014e+00 1.829866999999999910e+00 4.629414999999999836e+00 2.883160999999999863e+00 -2.020239000000000118e+00 3.963530000000000109e-01 3.965199999999999975e-02 3.008719999999999728e-01 3.998459999999999792e-01 -4.387949999999999906e-01 -4.784129999999999772e-01 1.285735999999999990e+00 1.360076000000000063e+00 -1.130625999999999909e+00 1.048750999999999989e+00 9.749269999999999881e-01 6.226760000000000073e-01 1.265350999999999893e+00 -7.661000000000000032e-01 1.457930000000000059e-01 -2.434543999999999819e+00 4.861977000000000437e+00 -3.327116999999999880e+00 1.960531999999999941e+00 -6.840089999999999781e-01 -2.423165000000000013e+00 7.044259999999999966e-01 -3.542520000000000113e-01 1.119272999999999962e+00 1.513055999999999957e+00 -6.543820000000000192e-01 1.728968999999999978e+00 1.259480000000000044e-01 8.275200000000000611e-02 -1.393593000000000082e+00 1.647323000000000093e+00 9.636010000000000408e-01 -1.018297000000000008e+00 -3.953523999999999816e+00 1.792505000000000015e+00 -1.319507999999999903e+00 3.959820000000000007e-01 -1.285358999999999918e+00 1.519565999999999972e+00 1.197321000000000080e+00 1.268766000000000060e+00 1.695076999999999945e+00 -2.032119999999999926e+00 8.402549999999999741e-01 -1.385191000000000061e+00 -4.366360000000000241e-01 1.797816000000000081e+00 -1.431637000000000048e+00 1.263168999999999986e+00 -1.737857999999999903e+00 -5.740999999999999576e-03 -8.754769999999999497e-01 -2.388899999999999912e-01 -1.746330000000000104e-01 -9.505599999999999605e-01 -1.523341000000000056e+00 -9.227899999999999991e-01 2.239319999999999922e-01 -1.004934999999999912e+00 2.464393999999999973e+00 -2.429696999999999996e+00 -1.291574000000000000e+00 7.089250000000000274e-01 1.201108000000000064e+00 -5.996289999999999676e-01 2.045609999999999928e-01 -2.320900000000000046e-02 1.171850000000000058e+00 -1.148123999999999922e+00 1.798600999999999894e+00 4.148249999999999993e-01 2.219253999999999838e+00 2.504747000000000057e+00 9.791099999999999803e-02 8.972120000000000095e-01 -6.968490000000000517e-01 2.242201999999999806e+00 -1.993182999999999927e+00 -3.335231999999999974e+00 -3.038396999999999792e+00 -2.970479999999999787e-01 -7.433900000000000230e-02 2.735599999999999837e-02 1.389937999999999896e+00 6.263929999999999776e-01 1.736810000000000020e-01 2.985340000000000216e-01 -1.684005999999999892e+00 1.514386000000000010e+00 -1.365877999999999926e+00 1.903890000000000027e-01 -8.099049999999999860e-01 7.777450000000000196e-01 -3.416919999999999957e-01 -1.683500999999999914e+00 -7.367639999999999745e-01 -1.164130000000000026e-01 -2.462650000000000006e+00 -2.143710000000000060e-01 -1.537755999999999901e+00 -3.034837000000000007e+00 -1.710020000000000095e+00 2.294722999999999846e+00 -3.028410000000000268e-01 -1.925143999999999966e+00 -4.109269999999999867e-01 -1.634594000000000102e+00 6.583539999999999948e-01 1.553913000000000100e+00 -6.859840000000000382e-01 1.404611999999999972e+00 2.301499999999999935e-01 -1.718825999999999965e+00 -1.282877999999999963e+00 1.339204999999999979e+00 -3.651559999999999806e-01 1.066281000000000034e+00 -6.333130000000000148e-01 -8.731500000000000372e-02 5.473540000000000072e-01 -2.839217000000000102e+00 6.845499999999999918e-01 5.985700000000000465e-01 -1.179491000000000067e+00 1.201969000000000065e+00 -1.326416000000000039e+00 8.412819999999999743e-01 3.212387000000000103e+00 1.732842999999999911e+00 -3.386790000000000078e-01 -5.844049999999999523e-01 -6.236589999999999634e-01 -3.643239999999999812e-01 8.044930000000000136e-01 -2.628150000000000208e-01 1.686806999999999945e+00 2.464566000000000034e+00 -1.785430000000000073e+00 -4.707879999999999843e-01 2.482975000000000154e+00 3.275145000000000195e+00 1.280421999999999949e+00 2.444949999999999957e+00 -8.563990000000000213e-01 -2.888399999999999856e-01 5.499330000000000052e-01 2.418720000000000037e-01 -2.637951999999999853e+00 2.713207999999999842e+00 -1.674201000000000050e+00 1.706838999999999995e+00 3.771720000000000073e-01 2.334461999999999815e+00 -1.321460000000000079e+00 1.429659999999999931e+00 3.726899999999999658e-02 1.260744000000000087e+00 2.122014000000000067e+00 3.738620000000000276e-01