-9.176611986899999920e+02
-9.236524453399999857e+02
-9.080961452999999892e+02
-8.994536809300000186e+02
-8.955242553799999996e+02
-9.089377856600000314e+02
-9.031527706699999953e+02
-9.168012808400000040e+02
-9.202299553899999864e+02
-9.087273905399999876e+02
-9.057594581099999687e+02
-8.948729499199999964e+02
-9.035620592300000453e+02
-9.019317796499999531e+02
-9.055767385999999988e+02
-9.298227719599999546e+02
-9.115638362099999767e+02
-9.129467242700000043e+02
-8.984566614699999718e+02
-9.224941987199999858e+02
-9.109572021400000494e+02
-9.130080265599999620e+02
-8.938622730700000147e+02
-9.038833778399999801e+02
-9.058741775700000289e+02
-9.060735453900000493e+02
-8.958914364099999830e+02
-9.161337912400000505e+02
-8.952204223400000274e+02
-8.998499882200000002e+02
-9.011542380600000115e+02
-8.962029185699999516e+02
-8.988973778199999742e+02
-8.965081967700000405e+02
-8.981578658800000312e+02
-9.184054668300000230e+02
-9.083775343199999952e+02
-8.919302774499999487e+02
-9.012341087900000502e+02
-9.222615066900000329e+02
-9.127225289499999690e+02
-9.152360289199999670e+02
-9.122742830400000003e+02
-9.116742099299999609e+02
-9.219929022999999688e+02
-9.049611611499999526e+02
-9.167872010099999898e+02
-8.956560730600000397e+02
-9.131688476699999910e+02
-9.061176106100000425e+02
-9.063919784299999947e+02
-9.022721205200000441e+02
-9.129534184699999741e+02
-8.959774216800000204e+02
-9.113841959699999506e+02
-8.951842910799999800e+02
-9.102396960099999887e+02
-9.215232874700000139e+02
-9.191330812300000161e+02
-8.982267322300000387e+02
-8.993518681100000549e+02
-9.273373363399999789e+02
-9.064875325199999452e+02
-8.970305127100000391e+02
-9.083867121900000257e+02
-9.060129282100000410e+02
-9.182018509600000016e+02
-8.968083699200000183e+02
-9.098033713700000362e+02
-9.116795559800000319e+02
-9.097331432199999881e+02
-9.014343842800000175e+02
-8.949436726200000294e+02
-9.095717015400000491e+02
-9.125258241400000543e+02
-9.153964308199999778e+02
-9.018837961699999823e+02
-9.142846022400000265e+02
-9.128552064799999926e+02
-9.114611807999999655e+02
-9.139941856000000371e+02
-9.191672866400000430e+02
-9.019081726499999832e+02
-9.013932771500000172e+02
-8.961857301999999663e+02
-9.091565921899999694e+02
-9.023409417999999960e+02
-9.240030499599999985e+02
-9.130520952399999715e+02
-9.261883437100000265e+02
-8.941471421600000440e+02
-9.197812724699999762e+02
-8.960867036800000278e+02
-8.968768495299999586e+02
-9.094369217500000104e+02
-9.061642305899999883e+02
-8.958649998399999959e+02
-9.054301285000000235e+02
-9.020813821299999518e+02
-9.216861219600000368e+02
