4.678099817916028691e+00 3.044191439117952758e+00 2.609642582848272774e+00 3.784731004097778406e+00 3.047875415102433205e+00 7.846686356974847065e+00 4.679995298868722564e+00 8.241775111521986830e+00 2.601967629365026902e+00 3.797990726977665155e+00 8.233842765880288184e+00 7.852032066965377588e+00 9.814580539556224892e+00 3.045415750911071306e+00 2.610320653093610499e+00 8.920584342560021085e+00 3.050176897459766945e+00 7.854035131375191270e+00 9.815687191492280306e+00 8.233557482501634439e+00 2.607271940250169173e+00 8.924860378747826672e+00 8.233668790521988967e+00 7.850143207333320383e+00 1.767494148618941718e+00 4.514960407403695308e-01 3.050299425399672693e+00 8.731662994218123419e-01 4.517687485233357614e-01 8.290432099071294303e+00 1.768041603508565984e+00 5.641757054741535882e+00 3.049001838116370156e+00 8.765545478017776615e-01 5.643098765679317452e+00 8.291033886579924683e+00 6.904923405700102101e+00 4.524619228229482815e-01 3.047187021452782751e+00 6.016045257595098228e+00 4.542347291624082573e-01 8.286288258103883919e+00 6.912340900259748899e+00 5.642512442535871031e+00 3.046026718862487215e+00 5.999263471047930452e+00 5.653796648025354976e+00 8.285441292588295426e+00 2.208789384265659184e+00 2.609425316128143102e+00 4.301086357013521599e-01 1.318431464807696019e+00 2.601657279144046875e+00 5.671386334026436771e+00 2.211586464279205799e+00 7.796666394721651017e+00 4.283288897974813492e-01 1.329240129791281477e+00 7.792756341407028664e+00 5.673115187312261831e+00 7.347009285229587405e+00 2.609880386965984123e+00 4.287657102434221934e-01 6.456991499499086018e+00 2.605912448583265650e+00 5.669764913205425749e+00 7.357971521575000118e+00 7.794496214690170177e+00 4.147417134457923038e-01 6.461121116405782239e+00 7.792850565424183529e+00 5.674674528975502064e+00 4.233558581379752717e+00 8.902921386642297444e-03 5.228357211105286062e+00 3.325980458368343218e+00 2.486299252513712171e-03 1.046888206981853031e+01 4.231016289951356590e+00 5.193273425732627402e+00 5.228698270731023001e+00 3.332829671228400681e+00 5.187874588499457928e+00 1.047298997973268264e+01 9.368688732894986160e+00 9.147890680699983026e-03 5.227705375862592874e+00 8.474012115652371335e+00 4.258866029755920858e-03 1.047191596310995010e+01 9.369358350066894658e+00 5.198016363611905888e+00 5.232297143870429323e+00 8.462357695454109319e+00 5.188912363448561216e+00 1.046664062493975855e+01 3.482003356715575038e+00 4.533212660656336546e+00 3.341260198964843386e+00 2.594014737272993365e+00 4.539066231972871179e+00 8.578452850810228014e+00 3.486610138753076793e+00 9.723834200973229258e+00 3.338141215546107876e+00 2.589012218134666643e+00 9.729067549362474310e+00 8.577267272272186105e+00 8.617574970485097907e+00 4.532655898806370764e+00 3.344567850841808632e+00 7.727250422122110329e+00 4.524784057356812106e+00 8.594685493227970596e+00 8.623639458168883110e+00 9.727050198450228891e+00 3.334819932266534170e+00 7.726922279629715895e+00 9.723552033832140395e+00 8.577331897141489137e+00 2.959129800826012069e+00 1.943174422651700262e+00 2.320915679880603655e+00 2.066982388603237020e+00 1.944436571043204554e+00 7.562027946265062361e+00 2.969673912882761613e+00 7.124647941463416956e+00 2.312320492047916787e+00 2.081001318193631100e+00 7.127894588096117090e+00 7.565712286511197426e+00 8.096268799928857618e+00 1.944470637040868199e+00 2.317073528804053151e+00 7.203092766692003934e+00 1.938970816514585138e+00 7.562913280266678306e+00 8.103389033079775317e+00 7.125337438521218481e+00 2.324599390791959319e+00 7.210649401384801926e+00 7.129682342487361879e+00 7.559393208461441915e+00 2.514578764080561246e+00 1.110424953455802166e+00 4.942327747790280945e+00 1.616771323435453045e+00 1.110327395083902768e+00 1.018359159179819784e+01 2.519325417061357264e+00 6.302326721391529496e+00 4.938659261538798972e+00 1.640425017443205347e+00 6.317062354366616006e+00 1.016972226077441022e+01 7.652408662310059562e+00 1.113490237958069562e+00 4.940546094064306892e+00 6.747261691949385742e+00 1.098431548904761135e+00 1.018551630722385326e+01 7.650667159600041067e+00 6.300359981761698869e+00 4.942537923074868722e+00 6.738027071605730889e+00 6.294825954789818212e+00 1.017777509455346419e+01 3.930248918054426444e+00 3.705952399367328898e+00 7.183126560597131727e-01 3.032921007958018667e+00 3.708155503000093223e+00 5.957967306234321470e+00 3.921719316616998796e+00 8.910341680123476493e+00 7.223846150268431465e-01 3.049706121968691619e+00 8.887237328687264792e+00 5.952388705647036815e+00 9.062191121044623543e+00 3.711435634026592378e+00 7.221642928293008357e-01 8.172523921749696996e+00 3.709427152854805954e+00 5.964374204918104994e+00 9.083744259838441693e+00 8.893179571241581982e+00 7.109750147534441567e-01 8.175668222746654834e+00 8.893151087409847833e+00 5.955902812325907902e+00 1.870861097733348133e-01 1.564897797071010732e+00 4.023182337497540395e+00 -7.096603421549362301e-01 1.567079220861868460e+00 9.266656756825273789e+00 1.907743889647078583e-01 6.753457563248805862e+00 4.024322818824638937e+00 -7.054228094031929075e-01 6.752059537638053222e+00 9.266435488356068007e+00 5.324845806078144506e+00 1.564293051930663037e+00 4.021479131920674632e+00 4.433387867434468887e+00 1.560925419556762783e+00 9.261979143253691760e+00 5.326941615860874002e+00 6.753255727454930302e+00 4.016090393903849254e+00 1.116107915444913612e+00 4.161346222613534707e+00 1.635463875914502596e+00 2.261910094290716933e-01 4.160227490457333310e+00 6.878294266240471799e+00 1.126206446616817125e+00 9.350935372896733710e+00 1.637092351001443458e+00 2.288480793955691706e-01 9.347068560728413189e+00 6.876554401769792157e+00 6.255949618955215286e+00 4.163839306814191232e+00 1.638501208215376925e+00 5.359117988014215683e+00 4.154835769543112178e+00 6.870270846871145309e+00 6.254585791105068182e+00 9.359302256267174158e+00 1.632986588107470993e+00 5.370838648854515007e+00 9.350902881150762624e+00 6.876401489482493190e+00 6.720846100318688121e-01 4.083316742090132401e+00 4.256990389573924283e+00 -2.103413233007440653e-01 4.087246800628395960e+00 9.501530089931042866e+00 6.761925563208355250e-01 9.271386821599483241e+00 4.257340499789489918e+00 -2.203156179228527300e-01 9.271109994097997742e+00 9.496713769969881369e+00 5.810264306997535932e+00 4.082541957523147858e+00 4.255316950392008302e+00 4.913267534711502016e+00 4.098604746488549111e+00 9.495657435992070461e+00 5.814352274866278592e+00 9.270832029672298802e+00 4.255687162875067209e+00 4.887317630418665182e+00 9.211270194613636164e+00 9.487936593091323090e+00 6.307606065396285100e-01 1.491696444455637760e+00 1.403610904572976770e+00 -2.597275866758489982e-01 1.487688991739407385e+00 6.643550270087291487e+00 6.361574911532189569e-01 6.680017655471729654e+00 1.401140629892533074e+00 -2.527785915816838092e-01 6.678867932259274554e+00 6.646130632509168912e+00 5.768699236279980269e+00 1.496813296184802189e+00 1.398170091193192022e+00 4.877912142742701462e+00 1.489054357232609371e+00 6.641607957760673031e+00 5.777948928482147473e+00 6.690834023503329675e+00 1.349760788577846871e+00 4.869872774268783289e+00 6.673670679036788123e+00 6.675731228944163931e+00
4.678049701975181662e+00 3.044351584213610185e+00 2.609312670828470182e+00 3.784551174890091296e+00 3.047495207132210115e+00 7.847196262216476370e+00 4.680245556889272684e+00 8.241324773151049499e+00 2.602717340159141024e+00 3.798260741031766585e+00 8.233642718728107823e+00 7.852101877763205451e+00 9.814620853699484115e+00 3.046695485867482844e+00 2.610931188277847870e+00 8.921214368878677803e+00 3.049386771696189324e+00 7.854234550821418637e+00 9.814987134490431586e+00 8.232777535408512648e+00 2.607251872213407484e+00 8.924699842011095896e+00 8.233519394261216817e+00 7.848763204176284702e+00 1.767593867844570621e+00 4.513463398467535970e-01 3.049589322788432089e+00 8.734359104686690856e-01 4.513591401501603761e-01 8.289481819710243116e+00 1.768581855491976995e+00 5.642176766789463116e+00 3.049591812345675113e+00 8.770744974023065854e-01 5.643268801631615261e+00 8.290873761042183432e+00 6.904433152190910583e+00 4.528022634641860611e-01 3.046467355040722857e+00 6.016765107628591736e+00 4.550649115729051841e-01 8.285758340096473162e+00 6.913081080309027904e+00 5.642822215083566739e+00 3.046446569387486480e+00 5.999743973139628928e+00 5.654666114331398319e+00 8.286611483206328899e+00 2.208329215082607266e+00 2.608925500097026617e+00 4.297485964562576255e-01 1.318991296658213352e+00 2.601657433028670141e+00 5.670946120129034540e+00 2.211676779542655957e+00 7.796456019120590497e+00 4.291887649393864024e-01 1.328570351776996450e+00 7.793666198688393720e+00 5.673545834661177345e+00 7.347189526450857322e+00 2.610190126072747141e+00 4.293457747121641743e-01 6.456301448119529773e+00 2.605462518033339947e+00 5.669704983297901180e+00 7.357281425040300249e+00 7.793876322870356255e+00 4.145917104307462187e-01 6.461431178544120968e+00 7.793590528560413233e+00 5.674714728818656795e+00 4.233268850745733225e+00 8.932638598456625958e-03 5.229057334699398041e+00 3.325970578571638914e+00 2.936196604392252250e-03 1.046912226715904382e+01 4.230526487315112938e+00 5.193493250197965594e+00 5.229178552504536448e+00 3.332369121961852088e+00 5.187165185437982551e+00 1.047166985031878106e+01 9.369198774648200612e+00 9.867862689467571391e-03 5.227695490693449187e+00 8.474962063398619350e+00 4.158857631448994834e-03 1.047179555713142385e+01 9.368398859431270154e+00 5.198395877936167864e+00 5.233567673916444285e+00 8.462327509989307828e+00 5.189422610484872855e+00 1.046607085586403585e+01 3.481674178866987379e+00 4.533041743783553734e+00 3.343440251571226707e+00 2.593944041394872446e+00 4.540687135268873575e+00 8.576363574716022953e+00 3.487230863162096739e+00 9.724413387462371716e+00 3.339941227829076986e+00 2.589151153033049990e+00 9.726428551632663400e+00 8.574916083620447438e+00 8.618815109025041110e+00 4.533215704260958212e+00 3.344837617879756309e+00 7.730551144488499560e+00 4.525153061623255368e+00 8.596514391177930037e+00 8.622830321508510920e+00 9.725659178673550898e+00 3.337309643463789222e+00 7.729042083924117179e+00 9.729572548844947377e+00 8.575823676755071290e+00 2.959289063009999499e+00 1.940575058021762667e+00 2.319414500651670430e+00 2.062250757035408277e+00 1.944068680903773938e+00 7.557819595097248211e+00 2.967636242041668648e+00 7.127515652614225594e+00 2.317942505059186864e+00 2.082861512239007062e+00 7.129934397251250999e+00 7.565882453265245111e+00 8.096289873581751451e+00 1.944289414151028295e+00 2.319913443268495801e+00 7.204272892070245682e+00 1.938900595708940022e+00 7.563252799235350210e+00 8.101919428785683053e+00 7.122896912210225473e+00 2.326038902703730482e+00 7.214518327420569754e+00 7.129923323880442254e+00 7.556541833477694148e+00 2.511779497334687417e+00 1.110054278701983366e+00 4.944308658164914050e+00 1.615191187376542103e+00 1.110047628292254895e+00 1.018328207511428474e+01 2.518755228079600172e+00 6.298136671772222250e+00 4.938857677044320660e+00 1.642005442204500953e+00 6.316591742691838540e+00 1.017091145471378510e+01 7.655728579319316829e+00 1.115320251689488451e+00 4.940025612753921713e+00 6.745422037294805051e+00 1.100141398308221108e+00 1.018613774569174169e+01 7.648537783017779645e+00 6.300789445263336397e+00 4.944098921624410892e+00 6.739997521775914713e+00 6.294455296955338675e+00 1.017901418248277245e+01 3.928359383261167181e+00 3.705271946745179790e+00 7.196430854994323445e-01 3.033671134327365237e+00 3.710995515564192271e+00 5.957828241264713220e+00 3.922680010833613284e+00 8.911650931091671168e+00 7.239848114286790981e-01 3.048365676480034203e+00 8.886777882269750961e+00 5.951299019966956649e+00 9.062851644042241972e+00 3.710644947164598584e+00 7.236637005976847004e-01 8.172834064421158118e+00 3.711197098687446072e+00 5.964454847790455538e+00 9.087274857575883047e+00 8.894898797433524962e+00 7.122544055918149652e-01 8.173929404195641624e+00 8.890869704927142791e+00 5.959372495887021337e+00 1.857454192881364263e-01 1.563948591587187575e+00 4.021532441145530434e+00 -7.105600877118276593e-01 1.566148925089011490e+00 9.267476700547645052e+00 1.908040726941640230e-01 6.750877733659490509e+00 4.023921697687947940e+00 -7.045136486323029246e-01 6.755640679935978277e+00 9.263646680988268045e+00 5.323814705476236142e+00 1.563384291423987049e+00 4.018749134504878917e+00 4.435448473772693134e+00 1.561994682772937404e+00 9.263388816156673755e+00 5.327061983618463614e+00 6.752185229595887961e+00 4.017229887623321893e+00 1.113567722123268711e+00 4.159196447832002264e+00 1.635313921663625658e+00 2.276004244342541560e-01 4.161248132534250743e+00 6.876594166509868877e+00 1.125666018178436811e+00 9.352676013372603236e+00 1.635683305992670311e+00 2.289680733123252987e-01 9.348118634776525937e+00 6.876364807588928763e+00 6.255479668325083509e+00 4.164859353621340965e+00 1.638461826538646804e+00 5.355716888960867728e+00 4.155577274772896068e+00 6.867272464770159068e+00 6.251954600789422223e+00 9.358543708684122109e+00 1.629997266597980499e+00 5.371048004125930753e+00 9.351823659281899737e+00 6.874561805269496340e+00 6.742949437825154213e-01 4.082556172365374714e+00 4.257989218090004968e+00 -2.114420079454892853e-01 4.085907545604364977e+00 9.499959934112842674e+00 6.776725524423360403e-01 9.269276582030911982e+00 4.257679026662259503e+00 -2.181945113480583676e-01 9.271028608397664073e+00 9.499622925047589206e+00 5.814424114785419206e+00 4.083251961299977140e+00 4.254695666395154952e+00 4.912275905091465944e+00 4.095316409533857893e+00 9.491936399742707309e+00 5.813382464787461679e+00 9.272501996170328553e+00 4.255908251785857743e+00 4.885037739027915826e+00 9.216540591971169150e+00 9.487349731148357890e+00 6.332717952522947114e-01 1.489594797717953112e+00 1.407069041678320698e+00 -2.590386519756523453e-01 1.485529993624536971e+00 6.641119077762762224e+00 6.355587574565862985e-01 6.682816467173858577e+00 1.403992063043870697e+00 -2.521874622626665285e-01 6.679686681862152753e+00 6.648950759317662218e+00 5.768750059148363363e+00 1.494362192057624661e+00 1.400729017841961133e+00 4.882422000931805783e+00 1.485493977966922508e+00 6.641824703230360782e+00 5.781089782331181759e+00 6.686402547955282216e+00 1.352727682840550560e+00 4.871831665546366708e+00 6.673541794054342446e+00 6.672850424607889686e+00
4.677989581580959566e+00 3.044501734243631574e+00 2.608972758329901609e+00 3.784381345048154266e+00 3.047104998531074305e+00 7.847706159335889886e+00 4.680495815543325833e+00 8.240884434779166767e+00 2.603467055254574003e+00 3.798520751265992423e+00 8.233442676509348246e+00 7.852161692383584857e+00 9.814661164655618109e+00 3.047985225124508979e+00 2.611531727765059152e+00 8.921834394564582382e+00 3.048586646565415670e+00 7.854433969787224967e+00 9.814277077489334644e+00 8.231997588947251643e+00 2.607231807997541839e+00 8.924549305907120811e+00 8.233379997367642034e+00 7.847383201499670946e+00 1.767693587703701219e+00 4.512066389521925402e-01 3.048879224478510341e+00 8.737055215155259402e-01 4.509495317769850464e-01 8.288531540349193705e+00 1.769122106841886977e+00 5.642586478838335751e+00 3.050181782273662101e+00 8.775944431822106928e-01 5.643438841885472179e+00 8.290703635506101676e+00 6.903942898048217813e+00 4.531326041063689081e-01 3.045747684327344551e+00 6.017484961482711725e+00 4.558950896818417808e-01 8.285238422087406462e+00 6.913821259724807433e+00 5.643121987632207848e+00 3.046866415611166889e+00 6.000214471411450035e+00 5.655535585570859780e+00 8.287771677646912138e+00 2.207859042713181452e+00 2.608435688998383739e+00 4.293785653350335463e-01 1.319551125321607454e+00 2.601667591213908892e+00 5.670495910534606665e+00 2.211767095439607367e+00 7.796255643518583689e+00 4.300486443826100347e-01 1.327890578217587159e+00 7.794586052299110612e+00 5.673986490130653593e+00 7.347379770858502468e+00 2.610489860247036109e+00 4.299358310570355890e-01 6.455621392918597934e+00 2.605012591153117896e+00 5.669635049571135177e+00 7.356601328504852155e+00 7.793256430418683323e+00 4.144417035948033123e-01 6.461741236861835880e+00 7.794330495998203823e+00 5.674744928663466581e+00 4.232979119478212482e+00 8.952355811216089476e-03 5.229757453992191607e+00 3.325960699408436749e+00 3.396093955325658192e-03 1.046936246880087573e+01 4.230036684678871950e+00 5.193713074663304674e+00 5.229658834278049895e+00 3.331908572695303938e+00 5.186455782376505397e+00 1.047034972090487770e+01 9.369718816400666839e+00 1.058783406637744950e-02 5.227685601703407237e+00 8.475912011778369504e+00 4.068849232196935541e-03 1.047167515545421601e+01 9.367439373249769829e+00 5.198785387957923554e+00 5.234848208262123492e+00 8.462287328345885484e+00 5.189932853851479955e+00 1.046551109060755280e+01 3.481344992743648614e+00 4.532860835514837206e+00 3.345600299879600836e+00 2.593873344883250720e+00 4.542298038565823148e+00 8.574274294320495926e+00 3.487851587571116241e+00 9.724992573951515951e+00 3.341741240112046984e+00 2.589290088564934145e+00 9.723799553901903536e+00 8.572564899270030736e+00 8.620045247565734314e+00 4.533775510347402893e+00 3.345107388738600918e+00 7.733831867489890044e+00 4.525532067152470361e+00 8.598343301071000866e+00 8.622021185481642647e+00 9.724278158895929280e+00 3.339799358962363129e+00 7.731181887583516321e+00 9.735583062594985293e+00 8.574315444425538502e+00 2.959458329013861633e+00 1.937975688458407175e+00 2.317923317600185218e+00 2.057539129920206378e+00 1.943710785198122570e+00 7.553621240587304442e+00 2.965608563558576272e+00 7.130383371736296994e+00 2.323544514252870119e+00 2.084701710740008984e+00 7.131984203367593089e+00 7.566062631960750018e+00 8.096310943414019690e+00 1.944108195562748831e+00 2.322743357734594394e+00 7.205463018714738155e+00 1.938850374269546872e+00 7.563592322985760674e+00 8.100459821937215921e+00 7.120476389567044428e+00 2.327468419398897481e+00 7.218367257278462290e+00 7.130164302235677987e+00 7.553700466134084301e+00 2.508990226133936741e+00 1.109673607618812285e+00 4.946279560418985533e+00 1.613601050684880134e+00 1.109757862133410100e+00 1.018297255794994882e+01 2.518185039731343888e+00 6.293956622151970492e+00 4.939056096851162536e+00 1.643575866966546339e+00 6.316121131648919196e+00 1.017210065247405737e+01 7.659038496962824460e+00 1.117160266051819839e+00 4.939505139565752323e+00 6.743592385826599589e+00 1.101841242779207253e+00 1.018676917603576015e+01 7.646408405168514832e+00 6.301198908766865614e+00 4.945659911571318013e+00 6.741957971946848538e+00 6.294084639752714594e+00 1.018025327423297988e+01 3.926479845280034464e+00 3.704601497791787601e+00 7.209635154212282737e-01 3.034411258796958499e+00 3.713805528762983865e+00 5.957689167212046222e+00 3.923640705050228217e+00 8.912960182059864067e+00 7.255850078305149387e-01 3.047015235446253190e+00 8.886328432181587189e+00 5.950219342407436329e+00 9.063502170227730304e+00 3.709844256633846094e+00 7.251731078839915856e-01 8.173154207091867463e+00 3.712967043888228069e+00 5.964535486841909595e+00 9.090795450859948446e+00 8.896608028559828796e+00 7.135237959514192374e-01 8.172210582456006733e+00 8.888598325481334328e+00 5.962832176109314375e+00 1.844047364441874226e-01 1.562999377500243536e+00 4.019902544790209475e+00 -7.114598364558428756e-01 1.565228633616770004e+00 9.268286648572994224e+00 1.908337570571213837e-01 6.748307904069229757e+00 4.023520580852576245e+00 -7.036044846742894876e-01 6.759211817933289623e+00 9.260867869317497281e+00 5.322783604874326890e+00 1.562475530917311284e+00 4.016019137089084090e+00 4.437509080110919157e+00 1.563063945989112025e+00 9.264798489059655751e+00 5.327192355829429182e+00 6.751124726802482989e+00 4.018379381821562291e+00 1.111027528801624475e+00 4.157046673050468932e+00 1.635163967412748498e+00 2.290098432600612965e-01 4.162268770309607291e+00 6.874904066777612677e+00 1.125125589106555024e+00 9.354406653849421716e+00 1.634274256682578308e+00 2.290880672290814268e-01 9.349168708824642238e+00 6.876175213408066256e+00 6.254999712608075413e+00 4.165859405363799617e+00 1.638412440081831400e+00 5.352325793727395364e+00 4.156318775069261839e+00 6.864284078846619508e+00 6.249333413660149716e+00 9.357775156168598230e+00 1.627017936964619604e+00 5.371257363851472455e+00 9.352754433110533228e+00 6.872732125356163735e+00 6.765052775331618085e-01 4.081795602640616139e+00 4.258988046606083877e+00 -2.125326919574832552e-01 4.084578289947532248e+00 9.498389778775063519e+00 6.791325485653366689e-01 9.267166343726058741e+00 4.258017561176822952e+00 -2.160734041397628924e-01 9.270957222696386779e+00 9.502532084426613679e+00 5.818573922574054258e+00 4.083961965708663655e+00 4.254074386219198090e+00 4.911284279925556717e+00 4.092038068276660390e+00 9.488225367793006626e+00 5.812422658528520358e+00 9.274171957734946403e+00 4.256139336874096735e+00 4.882757847637165582e+00 9.221810989328702135e+00 9.486762869205390913e+00 6.357929845977121630e-01 1.487503150347465608e+00 1.410527179264086550e+00 -2.583497204625791466e-01 1.483380999810282042e+00 6.638677889741206428e+00 6.349600186723266537e-01 6.685595283179437409e+00 1.406833487594226106e+00 -2.515863329443990826e-01 6.680505430833173719e+00 6.651770882305259036e+00 5.768800882016745568e+00 1.491911087930446467e+00 1.403287944490730021e+00 4.886921860388662608e+00 1.481953599331203186e+00 6.642041461123583623e+00 5.784210632361091342e+00 6.681971077972510997e+00 1.355684584746702503e+00 4.873790565732205593e+00 6.673432900466885975e+00 6.669989628870942155e+00
4.677939465640112537e+00 3.044661879339288557e+00 2.608642846310099461e+00 3.784201515840467156e+00 3.046724790560850327e+00 7.848216064577520079e+00 4.680746074197377204e+00 8.240444096407285812e+00 2.604216770350006982e+00 3.798790765320093854e+00 8.233242629357171438e+00 7.852231503181412720e+00 9.814691478799627333e+00 3.049264960712778638e+00 2.612142266770193899e+00 8.922454417063361731e+00 3.047796525735256612e+00 7.854623393056005654e+00 9.813567020488235926e+00 8.231217642485990638e+00 2.607211743781676194e+00 8.924398769169641810e+00 8.233230600475010874e+00 7.846003194521737889e+00 1.767793306929330122e+00 4.510569380585766064e-01 3.048169121867269737e+00 8.739751325623826839e-01 4.505399234038097167e-01 8.287581260988144294e+00 1.769652362646672916e+00 5.643006187216561997e+00 3.050781760322209379e+00 8.781043895963660528e-01 5.643618882770243594e+00 8.290533518092232157e+00 6.903462644538275406e+00 4.534729441157488994e-01 3.045028014094388169e+00 6.018204811516207009e+00 4.567252720923387632e-01 8.284708504079992153e+00 6.914571439773336436e+00 5.643431759548046323e+00 3.047286262315269223e+00 6.000694969682522029e+00 5.656405056178463120e+00 8.288931868266599778e+00 2.207388873530878648e+00 2.607935873599124488e+00 4.290185299108358885e-01 1.320100957172874789e+00 2.601667745730389836e+00 5.670055700458101811e+00 2.211857411336558332e+00 7.796055267916577769e+00 4.309085238258337225e-01 1.327220800203302353e+00 7.795495909580475669e+00 5.674417137479569107e+00 7.347560012079772385e+00 2.610799599353798683e+00 4.305158955257775144e-01 6.454941337084165731e+00 2.604552664273840357e+00 5.669565111543048985e+00 7.355921235790026991e+00 7.792636533665450393e+00 4.143016967572054621e-01 6.462041295180299016e+00 7.795070464067851645e+00 5.674775132329173744e+00 4.232679388844942991e+00 8.982073654888128242e-03 5.230457581407200962e+00 3.325950819611733333e+00 3.845991307204198271e-03 1.046960266614138924e+01 4.229536882043380075e+00 5.193932899760500099e+00 5.230139119872459830e+00 3.331448022795254538e+00 5.185736379315975420e+00 1.046902958718965770e+01 9.370228858153879514e+00 1.130780607514503613e-02 5.227675716534263550e+00 8.476851955704743702e+00 3.968845767308057729e-03 1.047154475329824308e+01 9.366479883247647464e+00 5.199174902281240129e+00 5.236118742609456866e+00 8.462257146701713140e+00 5.190443096586229821e+00 1.046495132153017416e+01 3.481025805986059041e+00 4.532669926615207068e+00 3.347760340065760065e+00 2.593812647737377741e+00 4.543898941231859112e+00 8.572185005802756663e+00 3.488472311346634491e+00 9.725561760441603809e+00 3.343541248093697682e+00 2.589419024731069552e+00 9.721180556802059058e+00 8.570213723041828047e+00 8.621285386739176104e+00 4.534345315801046716e+00 3.345377160077867007e+00 7.737092586672154937e+00 4.525911078246959818e+00 8.600162218607522391e+00 8.621222041179274598e+00 9.722887147090515825e+00 3.342269066342031802e+00 7.733311690610165101e+00 9.741583576977825842e+00 8.572807211615584677e+00 2.959627592464102008e+00 1.935396323194721546e+00 2.316422143152992330e+00 2.052847506624128293e+00 1.943352883927195629e+00 7.549432878433912641e+00 2.963580881888360441e+00 7.133261095158982990e+00 2.329136527749526842e+00 2.086541911794633108e+00 7.134014005184265983e+00 7.566252802051963045e+00 8.096332009425664111e+00 1.943926981276030030e+00 2.325563272202347154e+00 7.206653141538606810e+00 1.938800157131713719e+00 7.563921846737827082e+00 8.099010208713755432e+00 7.118075874893235344e+00 2.328877940879114483e+00 7.222186189692226144e+00 7.130385278186815334e+00 7.550869101648872928e+00 2.506220951111062245e+00 1.109292939573485848e+00 4.948240455032917318e+00 1.612030910171093678e+00 1.109468099012410169e+00 1.018265303314547587e+01 2.517604856471464814e+00 6.289796568860126058e+00 4.939264529079882671e+00 1.645146292362093199e+00 6.315660520605055339e+00 1.017328985453564982e+01 7.662338413973583506e+00 1.118990281046954305e+00 4.938984665897160120e+00 6.741762730537769421e+00 1.103541091551754283e+00 1.018739060638143457e+01 7.644299023497126200e+00 6.301608375308238585e+00 4.947210893878085436e+00 6.743908422752033616e+00 6.293723983181004122e+00 1.018149237410540131e+01 3.924610307931652553e+00 3.703941048205592779e+00 7.222839458234460164e-01 3.035141386454424772e+00 3.716605538293018540e+00 5.957560092677302244e+00 3.924581398634841456e+00 8.914259434292718609e+00 7.271852075728260090e-01 3.045684794410972174e+00 8.885878980829710727e+00 5.949139657206122145e+00 9.064142690039723504e+00 3.709063575336182694e+00 7.266625275971426712e-01 8.173454349130576446e+00 3.714726990353670377e+00 5.964616129233839992e+00 9.094286042879264897e+00 8.898297261583596907e+00 7.147931891710767038e-01 8.170501754341373157e+00 8.886346954004901377e+00 5.966271861116656972e+00 1.830640491461126007e-01 1.562040167715805339e+00 4.018262644135225159e+00 -7.123495813799832765e-01 1.564308337211110400e+00 9.269106592775786524e+00 1.908634452407034499e-01 6.745738070177409895e+00 4.023129464015549495e+00 -7.026953137085276690e-01 6.762772947328424600e+00 9.258109053342097994e+00 5.321762511912916160e+00 1.561566761175656959e+00 4.013309135849080889e+00 4.439559682629269588e+00 1.564133214138704764e+00 9.266198165785189289e+00 5.327312721033396592e+00 6.750074233243110733e+00 4.019508884145328587e+00 1.108487332292856342e+00 4.154906902569551086e+00 1.635004017464845028e+00 2.304092659072431160e-01 4.163289404415261963e+00 6.873223970864597909e+00 1.124585163855298164e+00 9.356137290024674869e+00 1.632875207370831472e+00 2.292080598788352186e-01 9.350198782874649339e+00 6.875985610624566924e+00 6.254519753070442611e+00 4.166859461407817378e+00 1.638353053626670830e+00 5.348944706134420635e+00 4.157060266130647719e+00 6.861315689098874238e+00 6.246722227163630237e+00 9.357016603020273493e+00 1.624038607811680635e+00 5.371466726130636360e+00 9.353665202639497522e+00 6.870912436838539250e+00 6.787156080966848526e-01 4.081045037216473936e+00 4.259976879425138030e+00 -2.136233759694771972e-01 4.083249034290698631e+00 9.496819623437284363e+00 6.806025408669625909e-01 9.265056109090906489e+00 4.258346091872144079e+00 -2.139523045727167172e-01 9.270885845598231256e+00 9.505421243808950038e+00 5.822713729729936283e+00 4.084661970750153692e+00 4.253453105562818415e+00 4.910302655392396964e+00 4.088769726386662029e+00 9.484514336323726980e+00 5.811462848448955221e+00 9.275841923601122474e+00 4.256360421963991669e+00 4.880497958165037176e+00 9.227051381123793306e+00 9.486185986715021556e+00 6.383041663026300938e-01 1.485411512211956220e+00 1.413965320674059001e+00 -2.576707800405041993e-01 1.481251998022873329e+00 6.636256714139873836e+00 6.343712760666921913e-01 6.688374102854719006e+00 1.409664908325339638e+00 -2.509852074467564531e-01 6.681324184105753794e+00 6.654581005294510909e+00 5.768851702331507347e+00 1.489479988102938357e+00 1.405836879743791457e+00 4.891401719847020324e+00 1.478413221959199220e+00 6.642258226658599440e+00 5.787331476016754017e+00 6.677559616590968972e+00 1.358621495258802270e+00 4.875749472925789973e+00 6.673313998277253134e+00 6.667148828829366103e+00