-9.654566116199999897e+02
-9.654509499600000026e+02
-9.654339395599999989e+02
-9.654057568299999730e+02
-9.653667011200000161e+02
-9.653172022700000525e+02
-9.652578057099999569e+02
-9.651891602800000101e+02
-9.651120217799999637e+02
-9.650272392399999717e+02
-9.649357374799999434e+02
-9.648385146599999871e+02
-9.647366184899999553e+02
-9.646311372899999697e+02
-9.645231938700000001e+02
-9.644139123300000165e+02
-9.643044312299999774e+02
-9.641958443400000078e+02
-9.640892204799999945e+02
-9.639855911600000127e+02
-9.638859107499999936e+02
-9.637910689499999535e+02
-9.637018617200000108e+02
-9.636190025600000126e+02
-9.635430907700000489e+02
-9.634746147600000086e+02
-9.634139577700000245e+02
-9.633613773099999662e+02
-9.633170174900000120e+02
-9.632808968000000505e+02
-9.632529254099999889e+02
-9.632329111599999578e+02
-9.632205558299999666e+02
-9.632154432600000291e+02
-9.632171060299999681e+02
-9.632249709999999823e+02
-9.632384290600000440e+02
-9.632567903999999999e+02
-9.632793487899999718e+02
-9.633053663900000174e+02
-9.633340838000000304e+02
-9.633647523800000272e+02
-9.633966147200000023e+02
-9.634289661799999749e+02
-9.634611170499999844e+02
-9.634924250399999437e+02
-9.635223067700000001e+02
-9.635502455099999679e+02
-9.635757761500000242e+02
-9.635985173000000259e+02
-9.636181620300000077e+02
-9.636344792800000505e+02
-9.636473129299999982e+02
-9.636565962700000227e+02
-9.636623194799999510e+02
-9.636645542999999634e+02
-9.636634375700000419e+02
-9.636591675099999748e+02
-9.636519849000000022e+02
-9.636421768999999813e+02
-9.636300660000000562e+02
-9.636160024700000122e+02
-9.636003690300000244e+02
-9.635835382200000367e+02
-9.635658900299999914e+02
-9.635477945899999668e+02
-9.635296102900000506e+02
-9.635116633599999432e+02
-9.634942615400000250e+02
-9.634776711599999999e+02
-9.634621139600000106e+02
-9.634477876099999776e+02
-9.634348317400000496e+02
-9.634233380099999522e+02
-9.634133524899999657e+02
-9.634048912599999994e+02
-9.633979118700000299e+02
-9.633923365800000056e+02
-9.633880569000000378e+02
-9.633849315600000409e+02
-9.633828034199999593e+02
-9.633814789100000553e+02
-9.633807537500000535e+02
-9.633804248799999641e+02
-9.633802930099999458e+02
-9.633801431900000125e+02
-9.633797800500000221e+02
-9.633790324999999939e+02
-9.633777372399999877e+02
-9.633757547799999656e+02
-9.633729798900000105e+02
-9.633693343400000231e+02
-9.633647713399999475e+02
-9.633592851299999893e+02
-9.633529026600000407e+02
-9.633456791500000236e+02
-9.633377049499999885e+02
-9.633291015099999868e+02
-9.633200177700000495e+02
-9.633106209500000432e+02
-9.653224389900000233e+02
-9.653171404099999791e+02
-9.653012512200000401e+02
-9.652749148699999751e+02
-9.652384084799999755e+02
-9.651921231500000431e+02
-9.651365637899999683e+02
-9.650723473599999807e+02
-9.650001990900000237e+02
-9.649209126599999991e+02
-9.648353760100000045e+02
-9.647445458400000007e+02
-9.646494347000000289e+02
-9.645510773299999983e+02
-9.644505575199999612e+02
-9.643489537100000462e+02
-9.642473447900000565e+02
-9.641467749400000002e+02
-9.640482607500000540e+02
-9.639527670500000340e+02
-9.638611848699999882e+02
-9.637743174800000361e+02
-9.636928909199999680e+02
-9.636175132099999701e+02
-9.635486982999999555e+02
-9.634868332500000179e+02
-9.634321837200000118e+02
-9.633849113899999566e+02
-9.633450503699999672e+02
-9.633125052399999504e+02
-9.632871029899999940e+02
-9.632685355400000162e+02
-9.632564214200000379e+02
-9.632502837700000100e+02
-9.632495893200000410e+02
-9.632537277000000131e+02
-9.632620599900000116e+02
-9.632739107400000194e+02
-9.632885870200000227e+02
-9.633053867999999511e+02
-9.633236259799999743e+02
-9.633426387900000236e+02
-9.633618009399999664e+02
-9.633805207100000416e+02
-9.633982577100000526e+02
-9.634145549200000005e+02
-9.634290026200000057e+02
-9.634412718900000527e+02
-9.634510970600000519e+02
-9.634583077400000093e+02
-9.634627979499999810e+02
-9.634645474200000308e+02
-9.634635805499999606e+02
-9.634600123300000405e+02
-9.634540194100000008e+02
-9.634458226799999920e+02
-9.634356916100000490e+02
-9.634239395099999683e+02
-9.634108856000000287e+02
-9.633968933899999456e+02
-9.633823171799999727e+02
-9.633675154999999677e+02
-9.633528396299999486e+02
-9.633386139899999989e+02
-9.633251524199999949e+02
-9.633127162199999702e+02
-9.633015276800000493e+02
-9.632917777999999771e+02
-9.632835934600000201e+02
-9.632770517100000234e+02
-9.632721887699999570e+02
-9.632689802300000110e+02
-9.632673426500000460e+02
-9.632671624199999769e+02
-9.632682593600000018e+02
-9.632704310200000464e+02
-9.632734312899999622e+02
-9.632769925100000137e+02
-9.632808205799999541e+02
-9.632846187899999677e+02
-9.632880725899999561e+02
-9.632908662300000060e+02
-9.632927082800000562e+02
-9.632933194500000127e+02
-9.632924294800000098e+02
-9.632898199500000374e+02
-9.632852889800000185e+02
-9.632786947199999759e+02
-9.632699241300000494e+02
-9.632589218699999947e+02
-9.632456714400000237e+02
-9.632302321500000062e+02
-9.632126976499999955e+02
-9.631932193300000336e+02
-9.631719972299999881e+02
-9.631492761099999598e+02
-9.631253482299999860e+02
-9.631005462199999556e+02
-9.630752336199999490e+02
-9.630498069300000452e+02
