5.065375340447161564e-04 -5.685519272737652981e-04 -1.116438279797492879e-03 1.650759664588473787e-03 2.611847204791581303e-04 -6.725184544352478828e-04 1.055996833253682217e-03 8.739990070944976021e-04 -1.530275261383668936e-04 1.104849994720386117e-03 -5.029368545221077477e-04 -3.096385142868554445e-04 -1.228304155094504888e-03 1.747544576464829611e-03 -1.084779173770374734e-03 -1.670146342585521974e-03 2.272865944731894709e-04 -4.202642006178798390e-04 -3.104739285227347406e-04 -7.685015760643849891e-04 -1.113212139394022509e-03 -1.527185776700809485e-03 -3.347180864152148440e-04 -4.305605718935283269e-04 2.204936942613583764e-03 -6.407307454671467520e-05 -1.548700107057343536e-04 1.879471337095437898e-03 3.493753773608015371e-04 1.175432405002808326e-03 1.371236208301286662e-03 1.776599935806881167e-04 5.885526210326659383e-04 1.866434867158631508e-03 -1.210568113967100921e-03 -1.279234039611470107e-03 -1.907441671779712107e-03 -7.074325057001073580e-04 -1.038575716371746126e-03 2.929293415906807497e-04 -1.379488151105160722e-04 -1.621712836628451556e-04 -8.021709617819567555e-04 -8.238154686061750082e-04 -3.110479412550412538e-04 -6.882591841768528982e-04 -1.148746503449198314e-03 -4.882312630398170277e-04 9.340620039850900790e-04 -7.451819697233138346e-04 2.853226326645692422e-04 2.473443653521736809e-03 1.722466762056301280e-03 8.757960644261471176e-04 1.656562024346624855e-03 1.340357972734513084e-03 1.248943859594834086e-03 9.449015429014529042e-04 6.000937984426634418e-04 -3.571029365506680564e-04 -1.573116417549315490e-03 -1.747818691771633136e-04 -2.754742003232694731e-04 -1.871991819700632607e-03 9.231749771237923816e-04 -1.308876945568284149e-04 -8.017046954739020809e-04 1.053793342062844980e-03 5.987596959374594935e-04 -1.081004526650012655e-03 2.650923675102043729e-04 -5.547296683986736968e-05 1.682730993197299697e-03 1.102042206077048374e-04 -7.225956229409908130e-04 7.806960787037090172e-04 5.242043447601465490e-04 1.734927502125445430e-03 1.126663940658383838e-03 -1.123773005999216751e-03 -6.939139685923662471e-04 1.832605632636066860e-04 1.627066693959575117e-04 6.550000806766210744e-04 -1.563742087818313078e-03 -9.219797642259128484e-05 6.905579019381386050e-04 -1.500350962057983312e-03 -9.035743459134371958e-04 -7.688155774038331379e-04 -4.989508505427554330e-04 7.270280197402091476e-04 8.503367291343882475e-06 -1.160434118178040172e-03 -2.643976532337461577e-05 -1.131568202176961050e-03 -1.310269434708235528e-03 3.079605552090709970e-03 -1.214174885262186412e-03 -5.230425203414243917e-04 2.603266374866456800e-03 -5.416804439930918624e-04 1.647056033484453857e-04 6.003637533894197768e-04 -8.698048216938054000e-04 -1.997853042244026808e-03 3.381107772953919786e-04 -2.288091633626807616e-03 7.998860996026522759e-04 -1.212008708931251256e-03 -9.782697550910430314e-05 1.990893473116237466e-04 -2.661321322053240325e-04 2.778095030679829510e-04 8.700114403631732966e-04 6.093641949333253430e-05 1.969381670802677160e-05 2.219245499619580252e-04 -2.679481880383562109e-04 -1.532000739266929027e-04 -1.025640404475335792e-03 5.907021512068567383e-04 8.436460924269500788e-04 -2.197123671137861476e-03 -4.872524692344676231e-05 -3.151815731256157492e-04 -1.371516067552408470e-03 -3.446046438418696664e-05 1.272509392043926629e-03 -9.845027624755153979e-04 4.715361125444011460e-04 1.223579178167311229e-03 1.030146334837421258e-03 3.327937960038795202e-04 3.277496272497601166e-04 1.328927806845736203e-03 -1.610142733953504534e-04 -1.625770216086819243e-04 7.594282934819906973e-04 9.895402891071198789e-04 9.571356660854458227e-04 1.163775131267823790e-03 -4.294927876729106881e-05 2.035537227194808563e-03 -1.607372549918196841e-03 2.464128995642971822e-04 1.601720377811866915e-03 -4.883894743434916662e-04 -4.416878512105381596e-04 1.670996877149537145e-03 -8.851548012773336306e-04 -5.688102482880908221e-04 -3.109065441867141450e-04 -9.686464001204090095e-04 2.186787975993094706e-04 8.894642966495581830e-04 2.638837818230366054e-03 -4.220144321286995923e-04 -3.551897917343577117e-04 6.662751735042435515e-04 -3.435437179067241673e-05 7.257307836317530804e-04 3.654218595953807121e-04 3.085239536851610079e-04 1.052993273735559074e-03 6.931369898439664621e-04 -6.112416017672391184e-04 4.594723251503463664e-04 4.099157700524241779e-04 -2.868258067970219779e-04 -2.790280455082887190e-03 -9.166828129695162941e-04 -1.141254624557243779e-03 -1.598140951960433506e-03 -1.863622898002525530e-03 -9.082455680658348390e-04 -1.479678911835077826e-03 4.464109182121916140e-04 -1.691611312613931902e-03 1.355102010601976934e-03 5.790414307156086611e-04 5.219539026699471663e-04 2.200329526304210703e-05 6.517702861997347850e-04 7.232688770447849970e-04 -7.209380178111652639e-04 -4.168617781841519156e-05 -2.513685471321535714e-04 8.629079418405892401e-04 6.467773377948009381e-05 1.143440136079318077e-03 -1.032533024147926255e-03 -9.055545534852978877e-04 -4.544765344207666365e-04 1.241150688000023814e-03 -2.762643043289459105e-04 -3.847123863502242727e-04 -6.280600400776659587e-04 7.531799126098870541e-04 -5.425404867809908071e-05 4.796889799057276653e-04 -2.653047654937611385e-05 1.014803472621966974e-04 1.212053989281668348e-03 6.817616957984457904e-04 5.032609800801147787e-04 -7.070441118281305115e-04 -1.468570701476798674e-04 -8.415760429376730237e-05 3.880199718921348317e-04 -5.603264731830631413e-04 -1.107306502826914965e-04 1.781166743047433521e-03 -7.121101689255349750e-04 5.762101137462656217e-04 -3.834801326397001752e-04 7.664324711415053089e-05 8.640291448776573604e-05 -9.479922726688329738e-04 -3.901819993315828951e-04 -8.528311746580776809e-04 -3.352178320569069482e-04 4.680980829471149593e-04 4.148895205017916156e-04 1.879996556354014659e-04 1.168896184241480847e-04 1.231204557843676916e-03 -4.925151305793706771e-04 5.407358514367508352e-04 7.043133160360685483e-04 -8.079037639627938572e-04 4.400808285519897415e-04 -3.641447697775975151e-04 2.716752675246955693e-04 2.117632541301419638e-04 -1.233834763999850205e-03 -4.156117170456676089e-04 -6.954822093792227067e-04 1.075945037214135933e-04 -1.279688211716407823e-03 5.981633536600932749e-05 1.021275713777761380e-03 -6.495836531741739457e-04 -7.471833271734787440e-04 9.533215492493669375e-04 -6.373045577514395389e-04 1.106355230296825529e-04 -1.615711773847672500e-03 -6.867373915070867137e-04 1.360754372199514742e-03 -3.981241281599666871e-05 -6.365371240750018538e-04 4.038902132270797752e-04 1.251069491928789639e-04 -3.081005467749684088e-04 3.931756599310197724e-04 1.349873523575009218e-03 2.364304777075020665e-04 -3.613043836996583723e-04 -6.736824693514054975e-04 -6.851518611286134576e-04 -6.683943263661410328e-04 1.001431785166062485e-03 1.419686375274717633e-03 -2.824879794688474940e-04 -6.464788379026559229e-04 -1.170170352384489318e-03 6.997114412963946863e-05 1.502912774899298190e-05 -7.802028139076191667e-05 6.628683820327581269e-04 5.720212370213915857e-04 2.177993161719703197e-03 -1.041812721630135238e-03 -1.631565356906597127e-04 5.173279403927773636e-04 2.621637107953408703e-04 -5.120452803866884029e-05 4.368778834529782654e-04 6.425399785195665039e-04 5.635549027603605578e-05 1.403778983572493474e-03 -1.825321788936245572e-04 8.645464825692425947e-04 1.081441807563170024e-03
-8.325501862140748457e-03 4.719421940582969703e-03 1.884521406857016940e-02 -1.725560380096462232e-02 -1.813220237885746627e-03 -4.576919482395399447e-02 -9.099696843917006589e-03 1.791300145402992261e-02 2.923918687748906786e-02 1.456359941931720768e-02 2.114654455761983895e-02 -3.595447384159949217e-02 8.023473791655683432e-03 -3.071310866225437572e-02 2.463772718038679047e-02 1.302756142547918661e-02 -2.812273429599684935e-03 -2.685719150362774615e-02 1.975046358508585759e-02 1.408109990687923634e-02 2.243551487233318154e-02 1.386766468441867454e-02 4.798828353369485183e-02 2.520734830739322641e-02 -8.845844526274833017e-03 -6.845605903174727114e-03 1.200943697412134963e-02 -1.374639491746288723e-02 -1.911467587109131824e-02 1.521603220673083991e-02 -1.975252025381601939e-02 -3.223046617159733285e-02 2.490968668980219833e-02 -1.682127601838532757e-02 1.843681971336913472e-02 -2.732264703446608128e-02 8.433836362948235812e-03 -1.433412472014798482e-02 1.764361475747684357e-02 -2.086697030703693698e-03 -1.161966533390199410e-02 1.580080159454477426e-02 -3.734547066563961154e-02 -3.948805162112742351e-02 2.886028705555487850e-02 3.316772889851968276e-02 -1.671196585204441989e-02 -6.076487095414919576e-02 -2.543544639691900852e-02 -2.174644305641600106e-02 2.337036743364375585e-02 -1.751567339050076264e-02 1.916361421733263001e-02 -3.371707015454560724e-02 2.500412617914520366e-03 4.431065318858604107e-02 1.207210717899014421e-02 2.489642464862781845e-02 -3.650827034329074544e-02 -2.164521982462630501e-02 3.545070224838928283e-03 -1.853975544748358989e-02 2.680367501012619058e-02 3.686828831903495030e-02 1.751372196347780047e-02 -2.570355661013678725e-02 1.650476112989828284e-02 5.042930772107697551e-02 2.243839033482407375e-02 -2.684732953570946601e-02 -2.400095579002755990e-03 -2.139777859995456444e-02 -1.590238099279841014e-02 -1.570542629281868052e-02 -2.456868414711548335e-02 -8.954793877215231832e-03 2.927794494323673197e-03 -5.177320157726060523e-03 3.674370867834499815e-02 2.946470550420354339e-03 -2.742877548955513500e-02 8.563100118173704034e-03 -2.215799295417947290e-02 4.056520368010823469e-02 -1.045033971887345328e-02 -3.105553967157047290e-02 -8.837367507784740089e-03 7.055983105892217784e-03 3.789051695544529141e-02 9.391604562505680501e-03 2.486189064720566513e-02 4.908031389910514665e-03 -2.465739165690565907e-02 2.698995111581724629e-02 -2.337582627399097113e-02 3.513863871543673745e-02 1.879046829745945404e-02 -2.498235783794112985e-02 -3.913893192231020918e-02 1.915411730965518866e-02 -2.084745739440512294e-02 1.683671705756294504e-02 2.319153686940657582e-03 -1.155513686523339766e-02 -1.862485965590274586e-02 -2.636435428260286776e-02 4.842788150261136126e-02 2.509290852871453106e-02 -7.932050351643287573e-04 7.721202263687563030e-03 1.127262624127208651e-02 -6.159403151205407323e-02 1.969721534448932304e-02 -2.164799793895284125e-02 -5.428613056594043355e-03 -1.306389100804334659e-02 -2.038054881527337492e-02 1.817861911216217888e-02 -5.387643291601120626e-02 5.291880234990060938e-03 3.256130764935488697e-02 3.209512521667270968e-02 1.119436731084715551e-02 9.265578324386924969e-02 3.180325240880414045e-02 6.481929079129927773e-02 1.627265564273235737e-02 5.467010778041401717e-03 -4.891787359938930962e-02 -2.783245323560082363e-02 -4.118616536181228527e-02 1.609891992270130398e-02 -7.635305542854381455e-03 1.095111583027986134e-02 -3.401537777739725016e-02 5.068388884123423838e-03 3.070080543416846275e-02 -1.191173227589619431e-02 5.107677081481912240e-02 7.185465326386254736e-02 -4.389861306989702172e-02 -7.176034424164821901e-02 -6.071916340481495894e-02 6.673230926425018084e-02 4.161401663609726881e-02 -1.627893078655957490e-02 -1.559290421496340937e-02 3.119587558619563508e-02 -7.250469838898710752e-03 -1.745304049516368736e-02 -4.060658065314198123e-02 6.479382583815532226e-02 2.964839061255558975e-02 -2.077493302820883347e-02 7.254504179256464867e-03 4.214058588414311760e-03 -4.716611625957310705e-02 8.197573011266596696e-03 9.665467983435329768e-04 3.904375044604482120e-02 -2.326009736876150785e-02 8.420078770576312072e-03 4.558069230877779404e-02 -2.209148210380081079e-02 -1.024691915211468386e-02 -3.319744486762680330e-02 1.959962572212309642e-02 -1.748488849874571885e-02 3.259179672547156403e-02 3.020144960594943126e-02 -2.908746558063866547e-02 -3.346622351110647986e-02 -7.151960525071636432e-02 2.956902649203001915e-02 -3.760871517524858043e-02 -3.816577950477852837e-02 -1.125605022464166126e-02 2.504551109080510249e-02 3.872390296912115630e-04 1.435459999910281524e-02 -1.397113584366064913e-02 2.092791049616661223e-02 -3.260266528218851156e-02 -2.344315210048469184e-02 -2.891528526542090638e-02 2.270852242249313258e-02 -1.016308182071857663e-01 -6.617623095262370470e-02 -1.473263922191039160e-02 5.504012913772014792e-02 7.265555912833925045e-02 -5.356278440532656615e-02 6.899488580501665462e-03 -5.378249726340452938e-03 2.048705386844692014e-02 6.944394100852113554e-03 1.372397464185563451e-02 -1.955975297905763674e-02 -9.396181851546819147e-03 2.448741166977179765e-02 1.903112648604350643e-02 9.864477479406255980e-03 -6.006920620329679605e-02 6.875940340174642451e-02 1.106378080275498103e-02 1.337711061310113865e-02 4.693853495789410829e-02 -4.773352931276147321e-02 4.796963307363159672e-03 -2.310670319140212259e-02 -5.367554126967702052e-03 3.007411129271828423e-02 -2.736001722673557165e-02 3.455364478238593523e-02 4.844266414783723190e-02 -8.947365227403025756e-03 -1.691035243237536817e-02 -1.618157486487327044e-03 3.075476984081951248e-02 1.409736628607463800e-02 -3.049135611414592606e-02 2.431850190938131609e-02 -2.102879025348081046e-03 -2.251722972829399427e-02 -3.810883121795356071e-03 -5.313657016729613630e-03 -3.303964288893885409e-02 -3.027818706395667137e-02 4.084340914673899314e-02 -8.724432152579482749e-03 6.008365234310506647e-02 4.613270404686391213e-02 -7.653513662781237688e-03 2.927108706450937473e-02 -1.102921733177132831e-02 -2.398789772614854862e-02 2.695489977218228431e-02 -2.998406688073848234e-02 1.092450476244904468e-02 -1.767884789760435990e-02 2.585638565517740101e-02 2.471706182733117083e-02 1.000275509420405461e-02 -2.312438716706759212e-02 1.034901314227765559e-02 -1.057171509872093136e-02 -1.428778644188896663e-02 3.843320345967680182e-03 -2.886289272247749907e-02 -3.411380367455257162e-02 -2.725900429865610666e-02 5.028308811114583048e-03 9.025116192186904973e-03 4.674224434422732249e-02 2.136166183568301985e-02 1.696731405164876583e-02 -1.586880283093028768e-02 -1.226031066432582348e-02 4.598590176797383300e-02 -7.542254792149043208e-02 2.005799036834814836e-02 -2.638416854021605543e-02 2.045145309937733413e-02 -4.831013027891192108e-02 -2.311026483288259811e-02 3.575642093860162407e-02 3.265621580978975147e-02 1.074907109891436868e-02 -4.117267496035117297e-02 -5.581982672957483405e-02 5.018343156839059731e-03 -5.114684997293931015e-03 -2.704612190940991132e-02 5.048451972911231420e-03 2.747663765102605765e-02 -3.476811533677697658e-02 -4.411132739038644418e-02 5.486318677017210099e-02 8.399454403671636690e-03 -2.560717794935974886e-02 4.194669406191428584e-02 -4.665518055635397426e-02 -3.571779172931883409e-03 1.455561924760152490e-02 6.883563722272542651e-02
-1.716248649100636167e-02 9.798319576347786983e-03 3.898477840036779912e-02 -3.583299663650790085e-02 -3.138559593796917419e-03 -9.106667469894899614e-02 -1.946427006688321304e-02 3.487487602288982108e-02 5.895944796342227762e-02 2.813932075256748294e-02 4.279905040828956703e-02 -7.167335257076240529e-02 1.691846782133819491e-02 -6.356301030518914097e-02 5.099020251500052670e-02 2.746920277310734709e-02 -5.971751022744369725e-03 -5.344807258201424854e-02 3.958968989375564324e-02 2.911640353635983752e-02 4.670940659250677474e-02 2.996747804887677641e-02 9.645629264301212868e-02 5.072405020259816710e-02 -1.970634195397917912e-02 -1.399249654805321055e-02 2.497751423071477989e-02 -2.938935754522705585e-02 -3.848361077254697227e-02 2.898867941086508832e-02 -4.068321099154707104e-02 -6.451766992678242829e-02 4.938279903606135335e-02 -3.580506060859153100e-02 3.785529293952238916e-02 -5.352104540531728988e-02 1.918630950015295239e-02 -2.784805455139645336e-02 3.681769671593795867e-02 -4.269251772804387272e-03 -2.332149063444903178e-02 3.198760453500250345e-02 -7.377250981781072192e-02 -7.891264259744346088e-02 5.883925069602073676e-02 6.656090093291575083e-02 -3.213435297041768862e-02 -1.205832731649426753e-01 -5.175386766590168997e-02 -4.282581102581516780e-02 4.669635915787767599e-02 -3.804516406763117781e-02 3.704524784533114873e-02 -6.936054061312536823e-02 3.025318349674571347e-03 8.737291306187486284e-02 2.302443193577609348e-02 4.821708359227334234e-02 -7.293269877721009209e-02 -4.269080144396997234e-02 8.690292936348873939e-03 -3.660675011699233289e-02 5.392794207600107997e-02 7.578650086309721146e-02 3.416533813617764204e-02 -5.146326726868799550e-02 3.301247951800588554e-02 9.817547226421657891e-02 4.520862542448388782e-02 -5.287384657599308868e-02 -5.063050728919189260e-03 -4.324298394623959929e-02 -3.374057429147109960e-02 -3.147194576039266667e-02 -4.863565488956247268e-02 -1.899203943567571995e-02 5.775160215710822137e-03 -1.152326154162134145e-02 7.210458396183851149e-02 7.688968955483206462e-03 -5.471825005509403650e-02 1.692795123924192499e-02 -4.440469937977094272e-02 8.049344483766375513e-02 -1.867414031568350244e-02 -6.111463040806531383e-02 -1.904615729105861230e-02 1.602735781120128572e-02 7.655452698702347458e-02 1.967981019686987354e-02 5.011772652954774726e-02 9.344065889379802800e-03 -4.938013686862761237e-02 5.517441521691932721e-02 -4.722933962858992529e-02 7.169861580754741115e-02 3.884213190394764093e-02 -5.282121878690280992e-02 -7.729457427932753810e-02 3.888642262228412388e-02 -4.425134509153692830e-02 3.458811369865118918e-02 4.512529555839560509e-03 -2.370455821902189494e-02 -3.656992677937264541e-02 -5.075489098177445035e-02 9.649469203044666599e-02 5.238490798290526551e-02 -2.637359824916943925e-03 1.664450007262562037e-02 2.247817108855344401e-02 -1.232562983263315454e-01 3.926269051077104638e-02 -4.389002657490399806e-02 -1.175535794821174276e-02 -2.604457085709281985e-02 -4.111971875365013490e-02 3.553340731443039441e-02 -1.076479965931855659e-01 1.100912040538668847e-02 6.613416136930247435e-02 6.388367560577158655e-02 2.125121608462931036e-02 1.869262482461048203e-01 6.255456025943689768e-02 1.315965124970418232e-01 3.404975530840662762e-02 1.062753042958500260e-02 -9.924045406186873808e-02 -5.471542123193105789e-02 -8.299385557721326856e-02 3.095320952407068504e-02 -1.623285766840713504e-02 2.161554970570500264e-02 -6.862851133339140097e-02 8.441940634353779782e-03 6.146153901763761612e-02 -2.340679117071492454e-02 1.017240941082355465e-01 1.430257888041519543e-01 -8.885535625841012308e-02 -1.450414468207757990e-01 -1.214563781962029465e-01 1.314831914603422081e-01 8.513025637906654342e-02 -3.308814511196835756e-02 -3.313176362471104835e-02 6.286219718409526147e-02 -1.383629845763925670e-02 -3.646597508882845617e-02 -7.964412815001468970e-02 1.298715353047529830e-01 5.933630387722472338e-02 -4.060933670378410326e-02 1.432446553558437349e-02 7.226678254810429969e-03 -9.721494540091860093e-02 1.667202490092647982e-02 2.639314191093042675e-03 7.724909204296946663e-02 -4.658768624618005172e-02 1.578144865860927823e-02 9.055689998366489579e-02 -4.427638704900109523e-02 -2.174664774707966985e-02 -6.748305253275535542e-02 3.995755756485460525e-02 -3.552103515260662120e-02 6.465761951685874975e-02 6.060379171790614139e-02 -5.552264335229167846e-02 -6.627773417374337173e-02 -1.421659922060660997e-01 6.085917874782219988e-02 -7.334391628497162474e-02 -7.520517601386590700e-02 -2.135333153647295951e-02 4.986368750922733767e-02 2.535994658362197406e-03 2.754204438807847030e-02 -2.881743625254000810e-02 4.135002559185031734e-02 -6.555221382519524354e-02 -4.741301982433654416e-02 -5.866791698061095406e-02 4.629988603974326267e-02 -2.020959419204481355e-01 -1.311121033902385991e-01 -3.047019043055481519e-02 1.092044448203017132e-01 1.436528455550629135e-01 -1.063629473849937029e-01 1.478850698767048520e-02 -1.006498351203701305e-02 3.962902691182366294e-02 1.442912979993699052e-02 2.799756969611731997e-02 -3.831647584692026570e-02 -1.962158960774184474e-02 4.909913896432083202e-02 3.745062316207395381e-02 1.990549500313937986e-02 -1.203239189998676351e-01 1.363456593632275948e-01 2.120079409260058542e-02 2.637599120043909035e-02 9.454826141202973822e-02 -9.514922756725048558e-02 9.346079037660133884e-03 -4.661463449365867845e-02 -1.013882594461022746e-02 6.016499398551915928e-02 -5.660125536759183507e-02 7.040016763916280562e-02 9.615033140667871014e-02 -1.809254061108163392e-02 -3.371224931337921116e-02 -3.083823803590176032e-03 6.267656403298584034e-02 2.891182649569829996e-02 -6.036781953308418408e-02 4.878099436772092429e-02 -4.670750849174011045e-03 -4.553047347408534923e-02 -7.520801934006260923e-03 -1.067117525018777130e-02 -6.733252849837402521e-02 -5.998589636569109929e-02 8.170107709102120142e-02 -1.885825692873747961e-02 1.210776931303893661e-01 9.205023492846960143e-02 -1.536882317563882661e-02 5.809922968344334582e-02 -2.207405647059563006e-02 -4.684913996313662399e-02 5.471329028350782608e-02 -5.894983107644585080e-02 2.172459549664730247e-02 -3.454513823341211209e-02 5.193308801823929427e-02 4.828167110351738039e-02 2.102493044796077334e-02 -4.538768631500130629e-02 1.986281323294864648e-02 -2.077511839783455910e-02 -2.846613889324783528e-02 9.513275312034122355e-03 -5.689204137968477404e-02 -6.947028039711579395e-02 -5.472631287661051946e-02 1.094700294498215584e-02 1.810460582244058023e-02 9.375208391551367870e-02 4.365641815944751314e-02 3.367346760634804675e-02 -3.333652234506227774e-02 -2.467620935843659047e-02 9.221463840429479364e-02 -1.498748562062729439e-01 3.952330521495130145e-02 -5.256624106053099654e-02 4.052988448689359702e-02 -9.892449861002686196e-02 -4.582683922447862435e-02 7.242410462060676346e-02 6.696867346451769454e-02 2.173521341214596642e-02 -8.227644017955740297e-02 -1.114647143642694960e-01 9.422802251065055118e-03 -1.095838786053292269e-02 -5.628532323115367775e-02 1.082948146488219021e-02 5.512471676766287493e-02 -7.067043700506402126e-02 -8.855903436308491805e-02 1.098138283598228682e-01 1.579107477777613386e-02 -5.252923022901950095e-02 8.433048670712008088e-02 -9.567067111861876638e-02 -7.197981773059402080e-03 2.807264463148188838e-02 1.367348483262011694e-01
-2.586351350761700169e-02 1.478124949274427571e-02 5.902924949103249830e-02 -5.394932184649404994e-02 -3.986970278722662409e-03 -1.362661255606101851e-01 -2.999193969052747072e-02 5.165985683255483463e-02 8.845669523354182662e-02 4.195315275058231902e-02 6.422040015139922342e-02 -1.070644216520150599e-01 2.547653381250810506e-02 -9.654998140449395916e-02 7.755374765085183697e-02 4.164088218521860146e-02 -9.025246838544120215e-03 -7.995680491577994431e-02 5.914806264873646163e-02 4.424956704451525613e-02 7.135044777206446531e-02 4.654137951928934147e-02 1.448861698588854441e-01 7.647755460305778741e-02 -3.031967686671621295e-02 -2.161961998324789594e-02 3.845029056428393710e-02 -4.482333298031739022e-02 -5.768053222641092437e-02 4.269932075119655529e-02 -6.140892664148840663e-02 -9.661284492806181123e-02 7.375891565530627580e-02 -5.503577709076107327e-02 5.702168716205090887e-02 -7.949945782965604779e-02 3.021289858552082125e-02 -4.140113504023067853e-02 5.630165715537704257e-02 -6.232702470477879432e-03 -3.525646352918487825e-02 4.848522352562435050e-02 -1.102584598623676942e-01 -1.191743897847360317e-01 8.918987679784330658e-02 9.943529843289904135e-02 -4.758696323538071787e-02 -1.798064900736200400e-01 -7.787729513705424211e-02 -6.367716810956286499e-02 6.996837445362456831e-02 -5.900581356377635617e-02 5.544112416599012577e-02 -1.055046252203576812e-01 3.440206233371230667e-03 1.303221919406474250e-01 3.394875012216112820e-02 7.095692485443563791e-02 -1.088682608882030334e-01 -6.333995080026622038e-02 1.374246310432833580e-02 -5.403763444241859587e-02 8.080951828029733774e-02 1.146807633030162699e-01 5.090490591891887184e-02 -7.710693092468136334e-02 4.857832582127262488e-02 1.446164594357174926e-01 6.852965902935582998e-02 -7.917838170064447900e-02 -7.661963370190193537e-03 -6.514605553355409806e-02 -5.164077946474248532e-02 -4.713044024301062812e-02 -7.275155548009841489e-02 -2.924116240231083505e-02 9.019429605170927941e-03 -1.761395120235802539e-02 1.072903981001818163e-01 1.290758118035975621e-02 -8.224645297261717891e-02 2.544875381940444464e-02 -6.643434556741850683e-02 1.202587197548193182e-01 -2.642915650372341593e-02 -9.036645060604721336e-02 -2.995277904246166148e-02 2.525865329653922270e-02 1.149815928789146152e-01 2.979981457446960122e-02 7.531965505587259746e-02 1.400601559753372923e-02 -7.389776427163415040e-02 8.358785173627335252e-02 -7.130085194650928604e-02 1.082224116383328077e-01 5.876182427817922688e-02 -8.058609850216685855e-02 -1.153871343811754963e-01 5.855673847783548353e-02 -6.736221986556661934e-02 5.231866006141066422e-02 6.667957107219016182e-03 -3.577402965834831916e-02 -5.439294499307702896e-02 -7.523559917120181684e-02 1.444116906453367932e-01 7.925287737556171996e-02 -4.462502267318653459e-03 2.558178377502982187e-02 3.371371469301176482e-02 -1.844646585453638132e-01 5.850021875135962696e-02 -6.632236973137667357e-02 -1.817106784991712187e-02 -3.910028981174772794e-02 -6.175488696314686277e-02 5.279925395768517854e-02 -1.605755603186240221e-01 1.673975761090426215e-02 9.970491773605526242e-02 9.545031991623938172e-02 3.108997016939736915e-02 2.799989333020975746e-01 9.226062171852010552e-02 1.991227423344699154e-01 5.173018716464827804e-02 1.604370044691281333e-02 -1.487358874847633516e-01 -8.144344934197227104e-02 -1.246344760233261684e-01 4.562251176417780191e-02 -2.470229161759367881e-02 3.227584214535896695e-02 -1.029316955686985224e-01 1.181452069063180545e-02 9.212023352973379431e-02 -3.481089357195455564e-02 1.528255446028287945e-01 2.143657644445382260e-01 -1.335072002738338370e-01 -2.181407452927459356e-01 -1.821673820991889792e-01 1.957170153851050809e-01 1.285664577860932689e-01 -5.026133714187126789e-02 -5.071074902866116313e-02 9.429756160854446678e-02 -2.028315077749111295e-02 -5.538976164617722547e-02 -1.182738627160337536e-01 1.942283782174328011e-01 8.865375118546706124e-02 -6.026769455487042404e-02 2.142436630043728987e-02 1.035424355834507586e-02 -1.470616816228820234e-01 2.525036680196756159e-02 4.538049098036159648e-03 1.152604098561372109e-01 -6.977222588565552830e-02 2.305695419513037123e-02 1.353171245808111600e-01 -6.636329039970612076e-02 -3.321825166238454724e-02 -1.018986217579137682e-01 6.040946104958919149e-02 -5.347209171648138748e-02 9.633349642524242917e-02 9.073207805903181489e-02 -8.177078999604671383e-02 -9.952130126626139439e-02 -2.128712924980538657e-01 9.201147071141765887e-02 -1.090780620545642315e-01 -1.120646220710953683e-01 -3.133553582569183205e-02 7.462379686139893054e-02 4.741833525286932860e-03 4.054453548638994181e-02 -4.384669645266604798e-02 6.153208990058834510e-02 -9.835679570143426864e-02 -7.122289582063164037e-02 -8.827953946182920397e-02 6.984624917868390015e-02 -3.012689335994287454e-01 -1.950781371344137149e-01 -4.602281810178448368e-02 1.625267160034289393e-01 2.140311912648938941e-01 -1.591770548944513863e-01 2.264845645926021750e-02 -1.482664319204400095e-02 5.860297880371619778e-02 2.186193704391548726e-02 4.236909447009496593e-02 -5.690213672149794372e-02 -2.996803295059646474e-02 7.351690016220181756e-02 5.580908263547089410e-02 3.026749838864171635e-02 -1.804516271420241458e-01 2.038738473102655879e-01 3.101072150822483525e-02 3.936998880494831793e-02 1.419341106959055299e-01 -1.424098859609695122e-01 1.366812391346031337e-02 -6.998072268325017387e-02 -1.491610274488282609e-02 9.011087233942272068e-02 -8.583155358685035097e-02 1.064525419758958202e-01 1.434981272046113865e-01 -2.756694949825465660e-02 -5.034519149167528823e-02 -4.323433716107006816e-03 9.444239088761452461e-02 4.399730081150159816e-02 -9.021431384319482383e-02 7.327539617841578867e-02 -7.074632189204410788e-03 -6.849471339182516827e-02 -1.126376232700262645e-02 -1.603363233758169082e-02 -1.016734860535574159e-01 -8.952562443111093671e-02 1.225945768339684605e-01 -2.968694411318540879e-02 1.817464212745902030e-01 1.379716568908234131e-01 -2.357304514319153582e-02 8.672316047330122513e-02 -3.288691880200510925e-02 -6.972037147907239607e-02 8.241258785847264956e-02 -8.761373262762223169e-02 3.246781770874192924e-02 -5.176156841989458524e-02 7.816882021479662490e-02 7.151521315369741005e-02 3.217990265379982312e-02 -6.745305480740866610e-02 2.933167566424002906e-02 -3.115261667784191557e-02 -4.221432950653078442e-02 1.536803403941273440e-02 -8.452827482610475451e-02 -1.044407068795396298e-01 -8.247372238558282886e-02 1.704342912585097083e-02 2.744215511470956062e-02 1.409078503904757362e-01 6.608313868147870640e-02 5.046166513777630008e-02 -5.074929264216532232e-02 -3.698611574419244374e-02 1.380969892059552284e-01 -2.234216437333137739e-01 5.782914172590281066e-02 -7.884435221042625230e-02 6.095138987247916695e-02 -1.496966826991543709e-01 -6.836340943277140203e-02 1.091097734862236102e-01 1.012890700841519442e-01 3.296959188784551187e-02 -1.229994598414432955e-01 -1.665545329688210563e-01 1.390924555572719233e-02 -1.682807998677451899e-02 -8.556156706155633451e-02 1.628846322654163917e-02 8.256785539369225491e-02 -1.066637238024433915e-01 -1.325990262137362041e-01 1.644357414385935467e-01 2.249139786026973717e-02 -7.962540858351885298e-02 1.269314477632490779e-01 -1.450520017980905518e-01 -1.079827452618559516e-02 4.154176645264461010e-02 2.044060288867504682e-01