3.348015000000000185e+00 3.669680000000000164e-01 -1.586236999999999897e+00 1.599804999999999922e+00 9.548130000000000228e-01 -1.476320000000000132e-01 1.015330000000000066e+00 2.304256000000000082e+00 1.781776000000000026e+00 -1.613080000000000069e+00 3.306779000000000135e+00 3.680039999999999978e-01 -3.220394000000000201e+00 -7.955339999999999634e-01 2.959258999999999862e+00 3.526230000000000198e-01 -1.412123000000000017e+00 1.124972000000000083e+00 1.446293000000000051e+00 -3.397155999999999842e+00 2.025652000000000008e+00 9.387020000000000364e-01 1.745888000000000106e+00 7.152800000000000269e-01 -1.214121000000000006e+00 -1.316440000000000110e-01 2.836793000000000120e+00 -3.656510000000000038e-01 2.227113000000000120e+00 -1.464179999999999926e-01 1.501843000000000039e+00 -1.587323999999999957e+00 1.647996000000000016e+00 -2.797782999999999909e+00 7.689399999999999569e-01 -7.205219999999999958e-01 3.568048000000000108e+00 1.534381999999999913e+00 2.607016999999999918e+00 -2.777331999999999912e+00 1.494631000000000043e+00 -1.940452999999999983e+00 3.883204000000000100e+00 1.763419000000000070e+00 7.451234999999999609e+00 -6.122610000000000552e-01 4.753479999999999928e-01 3.312533000000000172e+00 1.406959000000000071e+00 9.816160000000000441e-01 6.219860000000000388e-01 -1.779489000000000098e+00 2.072469999999999868e-01 -1.770779000000000103e+00 -6.065310000000000423e-01 9.163249999999999451e-01 -3.086837000000000053e+00 -1.014199999999999997e-02 2.058263000000000176e+00 -4.739154000000000089e+00 2.190690000000000137e-01 -3.264659999999999784e-01 -1.139915999999999929e+00 1.505017999999999967e+00 -9.086929999999999730e-01 -1.531037999999999899e+00 4.705001000000000211e+00 5.087316999999999645e+00 -1.566737999999999964e+00 1.544791000000000025e+00 -9.016140000000000265e-01 -1.175375999999999976e+00 -7.517500000000000571e-02 -1.412809999999999899e-01 -5.123750000000000249e-01 -1.596059999999999979e-01 -5.016110000000000291e-01 9.899820000000000286e-01 -1.417872999999999939e+00 -4.060750000000000193e-01 -2.838522000000000212e+00 -5.315900000000000070e-01 -3.585376000000000118e+00 -1.441159000000000079e+00 5.501740000000000519e-01 5.246619999999999617e-01 -8.254529999999999923e-01 1.692296999999999940e+00 -2.023419999999999941e-01 -9.100960000000000161e-01 1.747695999999999916e+00 5.200617000000000267e+00 -1.921310000000000073e+00 -9.513009999999999522e-01 -1.384670000000000067e-01 -2.997904000000000124e+00 -1.798521999999999954e+00 3.856863999999999848e+00 1.229834000000000094e+00 5.452200000000000102e-02 1.442310999999999899e+00 -1.449915000000000065e+00 -1.575803000000000065e+00 9.491030000000000300e-01 4.661000000000000212e-03 -9.302399999999999558e-02 -1.899510000000000087e-01 1.164752000000000010e+00 1.176569999999999977e-01 -1.873479999999999868e-01 -1.052866999999999997e+00 -2.218390000000000084e-01 1.113213999999999926e+00 -1.310099999999999876e-01 -2.834220000000000073e-01 1.754246999999999890e+00 1.547506000000000048e+00 6.207033000000000023e+00 -3.471172000000000146e+00 1.316500999999999921e+00 -1.142667000000000099e+00 -3.759140000000000259e-01 -1.365386999999999906e+00 -2.369060000000000055e-01 -1.555110000000000103e-01 -3.356439999999999979e-01 1.147429999999999978e-01 -1.111957000000000084e+00 1.701127000000000056e+00 2.281369000000000202e+00 -1.406158000000000019e+00 2.968811999999999784e+00 1.472559999999999980e-01 -1.503970999999999947e+00 -1.232135999999999898e+00 3.669769999999999976e-01 1.444370000000000098e-01 -2.618177000000000199e+00 2.664506999999999959e+00 1.789306000000000063e+00 -2.500847999999999960e+00 -3.756999999999999784e-01 -2.054310000000000025e-01 2.884510999999999825e+00 1.022369000000000083e+00 -1.781233000000000066e+00 -9.163729999999999931e-01 8.164919999999999956e-01 -1.193723000000000090e+00 1.734941999999999984e+00 -9.847460000000000102e-01 -7.104120000000000434e-01 -1.364768999999999899e+00 -6.426610000000000378e-01 5.912100000000000133e-01 4.491649999999999809e-01 1.420349999999999946e-01 8.377400000000000124e-02 1.725105000000000111e+00 -7.793430000000000080e-01 1.270405999999999924e+00 1.127313999999999927e+00 -2.147519999999999984e-01 -1.209760000000000002e-01 1.674539999999999917e+00 -1.718312999999999979e+00 -1.420250000000000123e-01 4.108049999999999757e-01 -4.224599999999999883e-02 9.789600000000000524e-01 -1.746491000000000016e+00 2.137620000000000076e-01 2.504252999999999840e+00 -3.076840000000000130e-01 -1.027214000000000071e+00 -1.309399999999999897e+00 -1.363426999999999945e+00 -1.033560000000000034e+00 -2.948899999999999855e-01 2.439582000000000139e+00 -6.085049999999999626e-01 8.036729999999999707e-01 -1.775368999999999975e+00 -3.165248000000000062e+00 -4.302038999999999724e+00 3.734709000000000056e+00 -2.163029999999999953e-01 2.032799999999999885e-01 -1.040197999999999956e+00 -1.099480000000000041e-01 -5.515849999999999920e-01 -1.678620000000000112e-01 -1.219791000000000070e+00 -9.889909999999999535e-01 7.609510000000000440e-01 -2.683164000000000105e+00 -7.248729999999999896e-01 -2.030024000000000051e+00 5.968830000000000524e-01 1.383302999999999949e+00 1.413389999999999924e+00 1.805554000000000103e+00 -1.269916000000000045e+00 5.939189999999999747e-01 1.266642999999999963e+00 -2.634082999999999952e+00 2.900215999999999905e+00 2.421454000000000217e+00 -5.669215999999999589e+00 2.486933000000000060e+00 -8.948499999999999510e-02 4.730820000000000025e-01 -8.170830000000000037e-01 2.180449999999999999e+00 1.882837000000000094e+00 1.001490000000000019e-01 1.401982999999999979e+00 2.427870000000000028e-01 -7.839199999999999502e-01 -5.507830000000000226e-01 -2.601458000000000048e+00 -2.974749999999999894e-01 -1.199599999999999972e-01 -1.015141000000000071e+00 -1.367758000000000029e+00 -1.811555999999999944e+00 -1.997031999999999918e+00 -1.406228999999999951e+00 1.127618999999999927e+00 2.644589999999999996e-01 -2.081528000000000045e+00 -7.052530000000000188e-01 -2.231631999999999838e+00 7.819500000000000062e-02 -1.498388999999999971e+00 -2.528503999999999863e+00 -1.380055999999999949e+00 -1.643120000000000136e-01 7.753390000000000004e-01 -5.631239999999999579e-01 1.110376999999999947e+00 2.231641000000000208e+00 1.574542000000000108e+00 -1.380295999999999967e+00 -1.020874999999999977e+00 1.370724999999999971e+00 5.016359999999999708e-01 -2.315258000000000038e+00 -9.428029999999999466e-01 -2.395097999999999949e+00 -2.628940000000000166e-01 2.115660999999999792e+00 -1.791409999999999947e-01 1.413650999999999991e+00 9.354200000000000292e-01 2.007960000000000023e-01 -3.027076999999999796e+00 8.797509999999999497e-01 -1.742178999999999922e+00 -1.848773999999999917e+00 8.687580000000000302e-01 -8.662039999999999740e-01 3.239549999999999930e+00 -2.245570000000000066e-01 -1.207256000000000107e+00 -8.723079999999999723e-01 -2.069922000000000040e+00 -2.371191000000000049e+00 -1.802875000000000005e+00 -1.316826999999999970e+00 -4.109030000000000182e-01 -1.231529000000000096e+00 -8.258109999999999618e-01 -2.182355999999999963e+00 2.623594999999999899e+00 -4.140598999999999918e+00 1.428380999999999901e+00 1.859237999999999946e+00 3.374329999999999830e-01 -4.188791000000000153e+00 -8.133439999999999559e-01 -6.423309999999999853e-01 9.537900000000000267e-01 2.512080000000000091e+00 2.837299999999999822e-01
-5.916457000000000299e+00 -1.224671000000000065e+00 -3.518352999999999842e+00 -5.344090000000000229e-01 2.378929999999999989e+00 1.306651000000000007e+00 -8.333920000000000217e-01 1.523123000000000005e+00 -9.322399999999999576e-01 5.033879999999999466e-01 2.207200999999999969e+00 4.511580000000000035e-01 3.453860999999999848e+00 -7.339750000000000441e-01 -9.302289999999999726e-01 4.661680000000000268e-01 -2.290559000000000012e+00 -2.252536000000000094e+00 -1.844796000000000102e+00 3.829825000000000035e+00 5.366849999999999676e-01 2.680229000000000195e+00 -8.939770000000000216e-01 -1.561798000000000020e+00 -1.594062000000000090e+00 -2.947608999999999924e+00 -6.926320000000000254e-01 9.505139999999999700e-01 -6.769999999999999976e-03 -2.044420000000000126e-01 1.845690000000000108e-01 -8.570899999999999352e-02 -7.546429999999999527e-01 3.366372999999999838e+00 4.555823000000000178e+00 -1.156940000000000079e+00 1.667723000000000066e+00 -1.924141000000000101e+00 7.434509999999999730e-01 1.164287999999999990e+00 -1.811277000000000026e+00 -1.454709000000000030e+00 4.564619999999999789e-01 2.547082000000000068e+00 -1.670201999999999964e+00 -2.923592999999999886e+00 2.480353000000000030e+00 -2.099412000000000056e+00 2.765283000000000158e+00 6.017059999999999631e-01 2.146075999999999873e+00 -2.434524999999999828e+00 8.973799999999999832e-02 4.476149999999999851e-01 2.592235000000000067e+00 -1.052913999999999906e+00 1.025911999999999935e+00 1.179669000000000079e+00 -8.479309999999999903e-01 -7.467829999999999746e-01 2.131673000000000151e+00 -1.518477999999999994e+00 -3.398429000000000144e+00 2.297018000000000004e+00 9.919100000000000139e-02 2.546263000000000165e+00 -1.607517000000000085e+00 2.921405000000000030e+00 9.240900000000000503e-02 -6.997499999999999831e-01 -7.985599999999999643e-02 1.812470000000000026e+00 1.135324999999999918e+00 -1.666039000000000048e+00 -1.941186000000000078e+00 -1.373161000000000076e+00 -5.202599999999999447e-01 1.104260000000000019e+00 -2.436085999999999974e+00 -2.279879999999999962e-01 2.488985000000000003e+00 -9.825019999999999865e-01 2.284650000000000070e+00 4.759000000000000209e-03 7.793219999999999592e-01 -6.570529999999999982e-01 -1.969390999999999892e+00 -1.778156999999999988e+00 -1.594066999999999901e+00 -1.660619999999999874e-01 -9.415329999999999533e-01 -5.452789999999999582e-01 2.894059999999999966e-01 -7.537610000000000143e-01 -2.158745000000000136e+00 1.239246000000000070e+00 2.018123000000000111e+00 -2.117709999999999870e-01 -7.958260000000000334e-01 3.380269999999999886e+00 1.131027999999999922e+00 1.101533000000000095e+00 -1.876692000000000027e+00 1.601841000000000070e+00 -1.541881000000000057e+00 -4.165900000000000158e-02 -4.571620000000000128e-01 -1.212609999999999966e+00 -3.193650000000000100e-01 2.734605999999999870e+00 1.616975000000000051e+00 1.651910000000000045e-01 -3.915440000000000031e-01 3.980779999999999874e-01 8.532809999999999562e-01 -8.371899999999999897e-01 1.523790999999999896e+00 9.096309999999999674e-01 4.200099999999999945e-01 1.047922999999999938e+00 8.078819999999999890e-01 -2.845480000000000231e-01 -2.353241000000000138e+00 1.910976999999999926e+00 1.866099999999999981e-01 4.493306999999999718e+00 -4.734829999999999872e-01 -4.015270000000000228e-01 -4.705429999999999890e-01 -1.884508999999999990e+00 -2.163924999999999876e+00 1.067349999999999965e-01 -1.831315000000000026e+00 2.274548999999999932e+00 -7.740960000000000063e-01 4.983899999999999997e-01 -4.319479999999999986e-01 3.594519999999999937e-01 -2.120746000000000020e+00 -1.424560000000000048e+00 -2.020594000000000001e+00 -2.317619999999999958e-01 2.195063999999999904e+00 -4.181159999999999877e-01 -1.378340000000000121e-01 8.768390000000000351e-01 9.594489999999999963e-01 -5.173410000000000508e-01 -1.784828999999999999e+00 7.910679999999999934e-01 1.155820000000000042e-01 -2.328405000000000058e+00 -2.336199999999999832e+00 2.489815000000000111e+00 -3.385059999999999736e-01 3.528609999999999802e-01 1.292124999999999968e+00 -1.478569000000000022e+00 -7.857690000000000508e-01 9.881579999999999808e-01 -4.071139999999999759e-01 6.004159999999999497e-01 -3.174379999999999979e-01 2.822810000000000041e-01 1.697359999999999980e-01 -1.157821999999999907e+00 -4.679479999999999751e-01 -2.925570000000000115e-01 -2.310490000000000044e-01 -8.901529999999999720e-01 6.122750000000000137e-01 4.039340000000000153e-01 1.204533000000000076e+00 -5.765970000000000262e-01 -2.088159999999999794e+00 -2.629405999999999910e+00 2.120804999999999829e+00 1.209694999999999965e+00 -1.659326000000000079e+00 8.645239999999999592e-01 5.250013000000000041e+00 1.931150000000000089e-01 -1.265686000000000089e+00 -1.161888999999999950e+00 -1.396389000000000102e+00 5.563700000000000312e-01 -9.605949999999999767e-01 2.026013999999999982e+00 2.813506999999999980e+00 8.597860000000000502e-01 -1.415510000000000101e-01 1.770526999999999962e+00 6.980180000000000273e-01 1.096589999999999954e+00 -2.309667000000000137e+00 2.906540000000000235e-01 -2.317576999999999998e+00 1.392694000000000099e+00 9.567919999999999758e-01 5.038369999999999793e-01 1.481136999999999926e+00 -1.837563000000000057e+00 -1.246018000000000070e+00 -1.603868999999999989e+00 6.832409999999999872e-01 -1.725643000000000038e+00 1.342228999999999894e+00 2.116711000000000009e+00 3.506409999999999805e-01 -5.234269999999999756e-01 1.363906999999999980e+00 -4.507820000000000160e-01 1.721454999999999957e+00 -1.465883999999999965e+00 2.970490000000000075e-01 -2.487589999999999968e+00 -1.122834000000000110e+00 -2.908047999999999966e+00 -2.850403000000000020e+00 2.153216000000000019e+00 -6.572559999999999514e-01 -1.633267999999999942e+00 -1.670671999999999935e+00 1.953157999999999950e+00 1.077080999999999955e+00 1.206544999999999979e+00 -1.521695999999999938e+00 4.667154000000000025e+00 -3.772810999999999915e+00 2.325200000000000045e-01 1.426943000000000072e+00 -2.511506999999999934e+00 -1.515435000000000088e+00 -2.963910000000000156e-01 -8.380379999999999496e-01 -4.230269999999999864e-01 -2.136789999999999967e+00 -1.503441999999999945e+00 -8.958310000000000439e-01 2.317023999999999972e+00 -2.897685000000000066e+00 -2.146980000000000111e+00 3.050161000000000122e+00 -1.166014000000000106e+00 1.583663999999999961e+00 -8.469000000000000833e-03 -2.091463000000000072e+00 3.635840000000000183e-01 2.220719999999999916e-01 6.089269999999999960e-01 1.001154000000000099e+00 2.312177000000000149e+00 -1.089692000000000105e+00 1.856567000000000078e+00 -3.667489999999999917e+00 3.715701000000000143e+00 -1.666900000000000048e-01 2.249728999999999868e+00 1.590278999999999998e+00 -7.987880000000000535e-01 -1.833881000000000094e+00 -5.699200000000000099e-02 1.821526999999999896e+00 9.628240000000000132e-01 -4.814309999999999978e-01 -2.109694999999999876e+00 -6.477129999999999832e-01 -1.928557999999999995e+00 1.901845999999999925e+00 2.254504999999999981e+00 -1.024488000000000065e+00 2.792454000000000214e+00 -1.741470000000000073e+00 -2.323409999999999920e-01 3.625853000000000215e+00 1.203280000000000044e-01 2.597760000000000069e-01 1.978300000000000058e-01 -1.341631999999999936e+00 5.466779999999999973e-01 3.500969999999999915e-01 -5.637710000000000221e-01 5.793760000000000021e-01 1.223243999999999998e+00 -1.152655999999999903e+00
-1.859004000000000101e+00 -1.672720000000000040e-01 -1.751471000000000000e+00 4.641290000000000138e-01 -1.812661000000000078e+00 -4.066520000000000135e-01 -5.513519999999999532e-01 -4.389910000000000201e-01 3.391516999999999893e+00 -3.640817000000000192e+00 1.338333999999999913e+00 1.455089999999999995e+00 2.093437999999999910e+00 -9.282019999999999715e-01 5.157460000000000377e-01 2.983520000000000061e-01 -1.133347000000000104e+00 -2.841702999999999868e+00 4.092692999999999692e+00 3.100442000000000142e+00 2.048319999999999919e+00 2.467390000000000139e-01 2.664493999999999918e+00 -3.539822000000000024e+00 -1.326543000000000028e+00 1.277698999999999918e+00 -1.052748000000000017e+00 -1.183510000000000062e+00 -8.477160000000000251e-01 -1.102171999999999930e+00 1.246591000000000005e+00 2.592833999999999861e+00 -3.275065999999999811e+00 1.034094000000000069e+00 1.185829000000000022e+00 -3.191139999999999866e+00 -1.542129999999999890e-01 -3.278556000000000026e+00 6.009860000000000202e-01 -7.686709999999999932e-01 -8.523990000000000178e-01 1.494652000000000092e+00 3.533440000000000136e+00 -1.460120000000000029e-01 2.887489999999999779e-01 -1.844033999999999951e+00 -4.293250000000000122e-01 -4.830023999999999873e+00 1.926717000000000013e+00 3.294884999999999842e+00 -2.091469000000000023e+00 -1.318073000000000050e+00 -3.803239999999999954e-01 -1.954239999999999866e-01 -1.229530999999999930e+00 7.875199999999999978e-01 -1.778379999999999961e-01 -1.198469999999999924e+00 8.118300000000000516e-02 2.663422000000000178e+00 -4.267250000000000210e-01 7.629970000000000363e-01 1.543300000000000054e-02 -1.188417999999999974e+00 1.295833000000000013e+00 3.038819000000000159e+00 -4.720230000000000259e-01 3.919840000000000213e+00 3.788509999999999933e-01 2.494807000000000219e+00 3.566070000000000073e-01 -8.033339999999999925e-01 -6.526669999999999972e-01 -1.442075999999999913e+00 -4.097060000000000146e-01 3.369906999999999986e+00 1.043603000000000058e+00 2.235516000000000059e+00 2.447773000000000199e+00 -4.714960999999999736e+00 1.090620000000000062e-01 -4.614772999999999570e+00 -2.887483000000000022e+00 8.834910000000000263e-01 -7.803620000000000001e-01 -1.095633999999999997e+00 -1.086499999999999966e-02 -1.936061999999999950e+00 -1.543582999999999927e+00 -6.035559999999999814e-01 3.585318000000000005e+00 3.080319999999999947e+00 -7.471710000000000296e-01 1.989592000000000027e+00 -1.518145000000000078e+00 8.146379999999999733e-01 -5.734820000000000473e-01 -1.004070000000000018e+00 -2.823163999999999785e+00 2.019200000000000106e+00 1.577270000000000061e-01 8.921930000000000138e-01 1.688900000000000123e-01 -1.232669999999999932e+00 1.875800000000000037e-02 -1.037878000000000078e+00 8.529419999999999780e-01 -3.075289000000000161e+00 -1.062848000000000015e+00 1.086225999999999914e+00 1.020585999999999993e+00 7.319890000000000008e-01 -1.143944000000000072e+00 8.748999999999999833e-02 3.947140000000000093e-01 -5.547499999999999654e-01 -3.093742999999999910e+00 9.428239999999999954e-01 1.303250000000000020e+00 1.352262999999999993e+00 -1.558867999999999920e+00 4.950309999999999988e-01 5.115060000000000162e-01 1.251500000000000112e-01 2.505533999999999928e+00 5.567459999999999631e-01 1.089196999999999971e+00 3.035200000000000120e-01 -4.624679999999999902e-01 2.781681999999999988e+00 1.124138000000000082e+00 1.983119999999999883e-01 1.509070000000000134e-01 7.888239999999999696e-01 -1.097615000000000007e+00 -6.418129999999999669e-01 -3.991469999999999740e-01 -2.707939999999999792e-01 -8.001759999999999984e-01 -1.166449000000000069e+00 2.328123000000000165e+00 -1.529890000000000139e-01 -7.909709999999999797e-01 -6.262830000000000341e-01 5.108110000000000150e-01 -4.952790000000000248e-01 -5.000999999999999890e-01 -4.735854999999999926e+00 3.210587999999999997e+00 -1.490092999999999890e+00 2.066169999999999951e-01 -7.467749999999999666e-01 -4.563670000000000226e-01 -7.969429999999999570e-01 1.465316000000000063e+00 -3.661619999999999875e-01 2.853248999999999924e+00 -1.833900000000000086e+00 -8.153730000000000144e-01 -2.569967000000000112e+00 -1.199599999999999972e-01 -7.676039999999999530e-01 1.062173999999999952e+00 2.025470000000000048e-01 7.807250000000000023e-01 9.775850000000000373e-01 -1.887620999999999993e+00 1.435259000000000063e+00 -1.004188999999999998e+00 6.109890000000000043e-01 -2.522076999999999902e+00 -7.041309999999999514e-01 -2.874004999999999921e+00 2.182047999999999988e+00 1.284745000000000026e+00 1.044173999999999936e+00 6.722289999999999655e-01 1.731287000000000020e+00 -9.306100000000000483e-02 1.223193999999999892e+00 -1.634822999999999915e+00 -1.449497999999999953e+00 2.305570000000000119e-01 -1.186261999999999928e+00 -2.031489000000000100e+00 1.755878000000000050e+00 7.917250000000000121e-01 -9.245409999999999462e-01 2.132249999999999979e+00 -1.311166999999999971e+00 -1.278705999999999898e+00 -8.028319999999999901e-01 -1.111247000000000096e+00 -3.282860000000000222e-01 1.423891999999999936e+00 5.781070000000000375e-01 -3.112179999999999946e-01 -2.164435999999999805e+00 1.387688999999999950e+00 -2.660606000000000027e+00 4.355489999999999640e+00 2.610135000000000094e+00 1.763708999999999971e+00 -7.820129999999999582e-01 -1.279541000000000039e+00 1.461854999999999905e+00 1.081096999999999975e+00 -5.026509999999999589e-01 -5.595860000000000278e-01 -9.227910000000000279e-01 1.017210000000000059e-01 -4.286119999999999930e-01 -4.092016000000000098e+00 -2.047810999999999826e+00 -1.028421000000000030e+00 -8.566709999999999603e-01 -1.575712999999999919e+00 -5.462050000000000516e-01 7.893550000000000288e-01 -8.058600000000000485e-02 1.785160000000000080e+00 2.563429999999999875e-01 -8.044930000000000136e-01 6.312569999999999570e-01 1.045581000000000094e+00 -3.219899999999999984e-01 2.691899999999999848e-01 1.732658000000000031e+00 -6.996459999999999901e-01 7.043129999999999669e-01 5.824359999999999538e-01 8.265730000000000022e-01 -5.354719999999999480e-01 -1.779599999999999932e-02 1.653261000000000092e+00 8.458250000000000490e-01 1.492486999999999897e+00 -2.839027000000000189e+00 -2.613195999999999852e+00 3.910448999999999842e+00 -1.200706000000000051e+00 1.355469999999999953e+00 -7.393699999999999717e-01 -7.444499999999999729e-02 5.098000000000000101e-03 9.169680000000000053e-01 3.929560000000000275e-01 2.381079999999999863e-01 6.877900000000000125e-01 3.639654999999999863e+00 6.259419999999999984e-01 1.256497999999999893e+00 2.990590000000000193e-01 1.974723000000000006e+00 3.111149999999999749e-01 -1.774283000000000055e+00 1.133278999999999925e+00 -3.194923999999999875e+00 8.825619999999999576e-01 -2.074653000000000080e+00 -4.791119999999999823e-01 -2.458594999999999864e+00 -1.615423000000000053e+00 6.715330000000000465e-01 2.229000999999999788e+00 -2.206589999999999940e-01 2.866839999999999944e-01 -2.135249999999999926e-01 1.451692999999999900e+00 -2.344500000000000056e-02 -1.115035999999999916e+00 -3.592609999999999970e-01 5.373300000000000298e-02 -1.987446000000000046e+00 -9.576559999999999517e-01 1.436418999999999890e+00 2.562317000000000178e+00 -8.867469999999999519e-01 -2.389990000000000059e+00 -6.142819999999999947e-01 7.867349999999999621e-01 2.357519999999999893e-01 1.808287999999999895e+00 1.803943000000000074e+00 2.024005999999999972e+00
-1.734247000000000094e+00 -2.272696999999999967e+00 -2.572121000000000102e+00 1.961449999999999916e+00 -1.543651000000000106e+00 -2.000426000000000037e+00 -4.704621999999999638e+00 -2.873523000000000049e+00 1.220102000000000020e+00 3.109043999999999919e+00 -4.356765000000000221e+00 -2.183552999999999855e+00 -2.487197000000000102e+00 3.856022999999999978e+00 2.103920000000000012e+00 -1.266075000000000061e+00 -5.762589999999999657e-01 1.834071999999999925e+00 1.228307999999999955e+00 5.018142000000000102e+00 1.442714999999999970e+00 -7.576823000000000086e+00 -5.318643999999999927e+00 2.538915999999999951e+00 3.383970000000000034e-01 -1.369326000000000043e+00 -2.992040000000000255e-01 2.462619000000000113e+00 7.361252000000000351e+00 -2.087191999999999936e+00 1.190917000000000003e+00 -8.734990000000000254e-01 -1.733729999999999993e+00 -1.033393000000000006e+00 1.229009999999999964e-01 -5.207840000000000247e-01 1.104589999999999961e+00 -9.151150000000000118e-01 -4.616861000000000104e+00 7.826199999999999823e-01 4.035839999999999983e-01 5.858219999999999539e-01 2.760111999999999899e+00 1.811908000000000074e+00 -4.293049999999999922e-01 1.560672999999999977e+00 2.988398999999999806e+00 9.182270000000000154e-01 1.663156999999999996e+00 4.926865000000000272e+00 -4.559980000000000366e+00 -5.613019999999999676e-01 2.619900000000000007e-01 2.328654999999999919e+00 7.604239999999999888e-01 -6.623580000000000023e-01 -1.483719999999999928e+00 -1.878749999999999865e-01 -1.169019000000000030e+00 -1.820100000000000051e-01 -1.528658999999999990e+00 1.116597000000000062e+00 -8.461229999999999585e-01 6.999659999999999771e-01 1.047461999999999893e+00 1.600716999999999945e+00 -1.077177999999999969e+00 -1.753185999999999911e+00 3.564500000000000307e-02 1.385847999999999969e+00 -6.481099999999999639e-01 3.547118000000000215e+00 2.054670999999999914e+00 9.999719999999999720e-01 2.840790000000000259e-01 -2.800059999999999771e-01 2.553579999999999739e-01 3.974562000000000150e+00 5.899879999999999569e-01 2.473650999999999822e+00 2.497241999999999962e+00 -3.042612999999999790e+00 3.361399999999999805e-02 -6.334130000000000038e-01 -7.983609999999999873e-01 -1.130926000000000098e+00 -1.041001999999999983e+00 -1.264426999999999968e+00 -1.683694000000000024e+00 -1.723128999999999911e+00 -1.131718000000000002e+00 -3.744835999999999832e+00 6.954749999999999543e-01 2.575445999999999902e+00 2.342826000000000075e+00 1.106044000000000027e+00 7.502799999999999470e-01 -1.841763999999999957e+00 -1.655513999999999930e+00 -3.379726999999999926e+00 3.222221999999999920e+00 2.373371999999999815e+00 -1.603839999999999932e+00 1.370089999999999919e-01 5.065700000000000064e-02 -3.892015999999999920e+00 1.390284000000000075e+00 -6.288350000000000328e-01 7.208449999999999580e-01 1.821094999999999908e+00 -1.283098000000000072e+00 -1.852389000000000063e+00 -1.269387999999999961e+00 -2.677633000000000152e+00 -1.471899999999999875e-01 -1.770027000000000017e+00 -7.959779999999999633e-01 1.052567000000000030e+00 9.762239999999999807e-01 7.232509999999999772e-01 -7.658500000000000030e-02 -4.600360000000000005e-01 3.585160999999999820e+00 -1.555350000000000066e-01 1.688229999999999897e+00 -3.775700000000000167e-01 -3.110719000000000012e+00 1.199001999999999901e+00 -1.188738000000000072e+00 -1.665011000000000019e+00 1.337755999999999945e+00 -1.631540999999999908e+00 -4.467380000000000240e-01 1.668998999999999899e+00 -2.381189999999999973e-01 7.548669999999999547e-01 9.097530000000000339e-01 5.337200000000000277e-02 -2.143955000000000055e+00 -1.026367000000000029e+00 -2.697906999999999833e+00 -1.475306000000000006e+00 -7.929359999999999742e-01 -1.335871000000000031e+00 -2.012519000000000169e+00 -1.561059999999999948e-01 7.173720000000000097e-01 2.224962999999999802e+00 -3.032310999999999979e+00 -3.477336999999999900e+00 6.602970000000000228e-01 1.097899999999999918e-02 1.831852999999999954e+00 -4.668699999999999933e-02 -3.180930000000000146e-01 2.920498999999999956e+00 -1.784561000000000064e+00 4.255189999999999806e+00 2.495465999999999962e+00 -5.179120000000000390e-01 -1.727872999999999992e+00 1.172949999999999965e-01 -1.881210000000000104e-01 -8.085390000000000077e-01 5.329420000000000268e-01 8.597029999999999950e-01 1.275320999999999927e+00 3.682460000000000178e-01 -4.893959999999999977e-01 -2.472709999999999908e-01 6.786400000000000210e-01 2.902159999999999740e-01 -2.259039999999999937e-01 -3.158182000000000045e+00 -1.266094000000000053e+00 -4.543610000000000149e-01 8.060829999999999940e-01 -1.780030999999999919e+00 -7.991089999999999582e-01 1.095590000000000036e-01 -2.958861999999999881e+00 -3.709373999999999949e+00 2.548783999999999939e+00 -9.935479999999999867e-01 3.558580000000000076e-01 2.840420000000000167e-01 -1.719708000000000014e+00 -6.081330000000000346e-01 -3.749939999999999940e-01 -2.825340000000000074e-01 1.292250000000000065e-01 8.794650000000000523e-01 2.093166000000000082e+00 -2.824669999999999792e+00 2.211403999999999925e+00 1.983432000000000084e+00 -7.000239999999999796e-01 -5.274699999999999944e-01 -1.342354000000000047e+00 1.043706000000000023e+00 -6.979509999999999881e-01 2.140673000000000048e+00 5.049400000000000555e-01 -6.599040000000000461e-01 1.113539999999999974e+00 -1.429450000000000109e+00 -3.561369999999999814e-01 2.519250000000000100e-01 -5.188409999999999966e-01 1.358797999999999950e+00 1.346152999999999933e+00 -2.147719999999999907e-01 -1.217921999999999949e+00 2.662709999999999799e-01 -1.169346999999999914e+00 3.814190000000000080e-01 1.003605000000000080e+00 1.425024000000000068e+00 -1.433000000000000107e-01 2.310135999999999967e+00 4.795229999999999770e-01 2.013980999999999799e+00 4.592292999999999736e+00 2.928996000000000155e+00 -2.468297000000000185e+00 2.064408999999999939e+00 3.946749999999999980e-01 1.260782999999999987e+00 -1.219526000000000110e+00 -1.910460999999999965e+00 -2.013203999999999994e+00 5.168706000000000245e+00 3.856838999999999906e+00 -8.528210000000000512e-01 -5.783369999999999900e-01 8.879099999999999493e-02 -1.384189999999999865e-01 5.503590000000000426e-01 1.657165999999999917e+00 -2.673760000000000026e-01 -4.340390000000000081e-01 1.726741999999999999e+00 -4.447650000000000214e-01 2.377918999999999894e+00 -2.518560000000000243e-01 1.179940000000000017e-01 -1.824630999999999892e+00 -4.296175999999999995e+00 3.356758000000000131e+00 -1.772960000000000091e-01 -2.740529999999999911e-01 4.211446999999999719e+00 1.954542000000000002e+00 -8.889580000000000259e-01 -1.542560000000000042e-01 -9.158099999999999574e-02 9.704209999999999781e-01 -5.854859999999999509e-01 -1.025859000000000076e+00 -4.448790000000000244e-01 -3.172349999999999892e-01 2.305770000000000042e-01 -1.330044999999999922e+00 -9.317459999999999631e-01 1.769071999999999978e+00 -1.249972000000000083e+00 -1.552497000000000016e+00 9.514730000000000132e-01 -4.137689999999999979e-01 2.136823000000000139e+00 5.864399999999999613e-01 -4.789970000000000061e-01 -1.407766000000000073e+00 9.334289999999999532e-01 -7.543000000000000226e-03 -1.025369999999999893e+00 -1.092349999999999988e-01 2.071280000000000066e-01 -9.553300000000000125e-01 1.122540000000000066e-01 -9.185750000000000304e-01 7.082739999999999592e-01 2.123997000000000135e+00 -1.220050999999999997e+00 -3.959250000000000269e-01