2.950699999999999990e-01 2.315179999999999794e+00 2.662830000000000030e+00 1.022381000000000029e+01 2.504710000000000214e+00 7.935940000000000438e+00 1.026299999999999990e-01 7.849879999999999747e+00 2.440980000000000150e+00 1.876700000000000035e-01 8.205339999999999634e+00 7.752889999999999837e+00 5.110289999999999999e+00 2.442839999999999900e+00 2.495909999999999851e+00 5.328689999999999927e+00 2.381609999999999783e+00 7.548219999999999708e+00 5.236679999999999779e+00 7.885679999999999801e+00 2.543229999999999880e+00 5.175670000000000215e+00 8.248580000000000467e+00 7.476219999999999644e+00 2.333349999999999813e+00 5.444810000000000372e+00 2.094829999999999970e+00 2.520030000000000214e+00 5.208459999999999646e+00 7.325800000000000090e+00 2.715349999999999930e+00 1.046157000000000004e+01 2.327640000000000153e+00 2.387389999999999901e+00 1.706999999999999837e-02 7.786749999999999616e+00 7.786469999999999558e+00 5.310990000000000322e+00 2.573510000000000186e+00 7.750390000000000335e+00 5.305430000000000312e+00 7.473539999999999850e+00 7.556000000000000050e+00 1.064176999999999929e+01 2.423500000000000210e+00 7.855599999999999916e+00 1.138399999999999967e-01 7.552760000000000140e+00 2.286929999999999907e+00 2.375739999999999963e+00 5.173790000000000333e+00 2.983340000000000103e+00 2.454600000000000115e+00 1.021147000000000027e+01 2.450899999999999856e+00 7.855649999999999800e+00 5.160580000000000389e+00 2.936170000000000169e+00 7.726350000000000051e+00 9.704159999999999897e+00 7.935579999999999856e+00 2.798799999999999955e+00 5.152379999999999960e+00 7.925150000000000361e+00 2.546899999999999942e+00 2.177199999999999969e-01 7.767850000000000144e+00 8.271190000000000708e+00 5.275520000000000209e+00 8.097709999999999297e+00 7.638889999999999958e+00 1.001830999999999960e+01 5.648000000000000242e-02 5.183779999999999610e+00 4.949010000000000353e+00 2.714099999999999846e-01 5.383949999999999569e+00 9.966329999999999245e+00 6.861000000000000432e-02 1.046556999999999960e+01 4.868109999999999715e+00 1.897399999999999920e-01 1.013186999999999927e+01 1.840900000000000036e-01 5.192929999999999602e+00 4.629450000000000287e+00 4.795490000000000030e+00 5.192709999999999937e+00 5.049190000000000289e+00 9.951980000000000715e+00 5.074550000000000338e+00 1.051726999999999990e+01 5.169200000000000017e+00 5.519319999999999560e+00 1.012237000000000009e+01 1.024146999999999963e+01 3.799760000000000026e+00 4.434639999999999915e+00 3.162129999999999885e+00 3.785890000000000200e+00 4.294769999999999754e+00 8.806509999999999394e+00 3.379189999999999916e+00 9.571099999999999497e+00 3.906270000000000131e+00 4.040910000000000224e+00 9.428699999999999193e+00 8.731239999999999668e+00 8.785999999999999588e+00 4.278940000000000410e+00 3.949100000000000055e+00 9.270279999999999632e+00 3.835999999999999854e+00 9.158250000000000668e+00 8.527720000000000411e+00 9.758409999999999584e+00 3.960199999999999942e+00 9.226240000000000663e+00 9.530549999999999855e+00 8.927490000000000592e+00 4.209740000000000038e+00 7.101800000000000335e-01 1.404239999999999933e+00 3.754319999999999879e+00 7.399200000000000221e-01 6.305399999999999672e+00 4.107899999999999885e+00 6.026419999999999888e+00 9.801199999999999912e-01 3.780250000000000110e+00 6.157630000000000159e+00 6.112379999999999924e+00 9.141569999999999752e+00 8.494099999999999984e-01 1.182530000000000081e+00 9.060299999999999798e+00 1.268000000000000016e+00 6.474079999999999835e+00 3.898289999999999811e+00 1.867890000000000050e+00 3.872560000000000002e+00 3.510889999999999844e+00 1.626829999999999998e+00 8.422819999999999752e+00 3.501059999999999839e+00 7.110960000000000392e+00 3.621710000000000207e+00 4.449259999999999771e+00 6.749139999999999695e+00 8.626599999999999824e+00 9.275130000000000763e+00 1.641650000000000054e+00 3.947999999999999954e+00 8.610670000000000712e+00 1.571769999999999889e+00 8.908239999999999270e+00 9.204579999999999984e+00 6.844509999999999650e+00 4.194130000000000358e+00 9.283110000000000639e+00 6.752279999999999838e+00 8.582879999999999399e+00 4.258460000000000356e+00 3.631949999999999790e+00 1.033099999999999907e+00 3.901749999999999829e+00 3.416129999999999889e+00 6.316860000000000142e+00 3.993920000000000137e+00 8.826290000000000191e+00 9.790400000000000214e-01 3.668670000000000098e+00 8.876429999999999154e+00 6.405310000000000059e+00 9.417759999999999465e+00 3.470579999999999998e+00 1.512000000000000011e+00 9.193870000000000431e+00 3.762750000000000039e+00 6.598519999999999719e+00 9.109280000000000044e+00 8.695080000000000808e+00 1.095469999999999944e+00 9.131700000000000372e+00 9.326269999999999172e+00 6.205499999999999794e+00 1.400199999999999889e+00 5.722800000000000109e-01 3.765390000000000015e+00 9.739700000000000024e-01 4.851800000000000002e-01 9.136860000000000426e+00 1.227370000000000072e+00 6.216479999999999784e+00 3.552880000000000038e+00 1.544890000000000096e+00 6.297959999999999781e+00 8.778309999999999391e+00 6.273839999999999861e+00 9.907099999999999795e-01 3.434569999999999901e+00 5.790890000000000093e+00 5.674900000000000500e-01 8.432109999999999772e+00 6.230780000000000207e+00 6.217310000000000336e+00 3.803119999999999834e+00 7.017859999999999765e+00 5.676910000000000345e+00 9.188420000000000698e+00 1.493980000000000086e+00 4.103030000000000399e+00 8.881000000000000005e-01 1.461729999999999974e+00 4.121050000000000324e+00 6.166669999999999874e+00 1.453419999999999934e+00 9.170600000000000307e+00 1.259849999999999914e+00 1.219729999999999981e+00 9.599370000000000402e+00 6.663409999999999833e+00 6.798980000000000246e+00 3.833759999999999835e+00 1.425559999999999938e+00 6.346460000000000434e+00 4.172209999999999752e+00 6.492359999999999687e+00 6.196579999999999977e+00 9.362489999999999313e+00 1.919170000000000043e+00 6.614810000000000301e+00 9.354639999999999844e+00 6.426440000000000374e+00 1.633839999999999959e+00 3.489790000000000170e+00 3.575120000000000076e+00 1.447559999999999958e+00 3.695699999999999985e+00 8.711360000000000881e+00 8.227900000000000214e-01 8.845319999999999183e+00 4.253350000000000186e+00 1.378689999999999971e+00 8.849069999999999325e+00 9.044729999999999492e+00 6.369410000000000238e+00 3.393879999999999786e+00 3.995769999999999822e+00 6.186480000000000423e+00 3.025160000000000071e+00 9.154579999999999274e+00 6.040589999999999904e+00 8.737909999999999400e+00 4.438200000000000145e+00 6.543090000000000295e+00 8.763320000000000221e+00 8.935470000000000468e+00 1.406910000000000105e+00 1.170139999999999958e+00 1.211640000000000050e+00 1.191540000000000044e+00 1.298489999999999922e+00 6.383210000000000051e+00 9.200559999999999405e+00 6.114950000000000330e+00 1.137059999999999960e+00 9.119199999999999529e-01 6.799220000000000041e+00 6.262929999999999886e+00 6.784180000000000099e+00 9.271000000000000352e-01 7.486399999999999721e-01 6.615079999999999849e+00 1.296540000000000026e+00 5.972999999999999865e+00 6.778570000000000206e+00 6.816069999999999851e+00 1.452599999999999891e+00 6.766000000000000014e+00 6.857210000000000250e+00 6.578070000000000306e+00
1.023173000000000066e+01 2.451299999999999812e+00 2.527179999999999982e+00 1.008095999999999925e+01 2.751920000000000144e+00 7.396419999999999995e+00 1.034822999999999915e+01 8.062879999999999825e+00 2.348879999999999857e+00 5.275400000000000089e-01 8.013909999999999201e+00 7.663179999999999659e+00 5.203380000000000116e+00 2.707959999999999923e+00 2.403399999999999981e+00 5.041089999999999627e+00 2.665880000000000027e+00 7.537160000000000082e+00 5.173160000000000203e+00 8.032220000000000582e+00 2.420729999999999826e+00 5.582659999999999734e+00 8.065699999999999648e+00 7.806199999999999584e+00 2.527470000000000105e+00 4.666000000000000369e+00 2.620820000000000149e+00 2.385079999999999867e+00 5.277650000000000396e+00 7.413549999999999862e+00 2.398369999999999891e+00 1.043385999999999925e+01 2.454029999999999934e+00 3.008659999999999890e+00 1.045236000000000054e+01 7.936689999999999579e+00 7.473499999999999588e+00 5.152879999999999683e+00 2.684270000000000156e+00 7.595600000000000129e+00 5.222559999999999647e+00 7.685279999999999667e+00 7.626739999999999853e+00 1.023436000000000057e+01 2.612319999999999975e+00 8.382720000000000837e+00 1.023076000000000008e+01 7.887330000000000396e+00 2.752800000000000136e+00 2.275720000000000187e+00 4.957089999999999996e+00 2.493219999999999992e+00 2.285800000000000054e+00 1.009168000000000021e+01 2.955620000000000136e+00 8.126089999999999591e+00 4.955599999999999561e+00 2.604400000000000048e+00 7.578879999999999839e+00 1.748999999999999860e-02 7.872740000000000293e+00 2.262960000000000083e+00 5.103180000000000049e+00 7.849969999999999892e+00 2.371309999999999807e+00 1.025445999999999991e+01 7.801870000000000083e+00 7.821550000000000225e+00 5.371550000000000047e+00 7.849070000000000213e+00 7.493219999999999992e+00 1.006558000000000064e+01 1.033666999999999980e+01 5.588980000000000281e+00 4.901040000000000063e+00 6.106000000000000316e-02 5.394300000000000317e+00 9.987399999999999167e+00 1.448599999999999888e-01 1.064415999999999940e+01 5.104079999999999728e+00 2.043000000000000094e-01 1.078636000000000017e+01 2.017000000000000043e-02 5.112860000000000404e+00 5.448760000000000048e+00 5.231160000000000032e+00 5.075510000000000410e+00 5.494239999999999569e+00 1.028476000000000035e+01 5.382019999999999804e+00 1.067905999999999977e+01 5.154169999999999696e+00 5.228430000000000355e+00 1.574399999999999966e-01 8.165000000000000036e-02 4.162880000000000358e+00 4.144980000000000331e+00 3.587619999999999809e+00 4.209069999999999645e+00 4.267949999999999910e+00 8.846159999999999357e+00 4.266210000000000058e+00 9.543169999999999931e+00 3.956080000000000041e+00 4.602009999999999934e+00 9.794669999999999987e+00 8.935340000000000060e+00 9.193049999999999500e+00 4.454310000000000436e+00 3.906579999999999941e+00 9.075789999999999580e+00 4.063889999999999780e+00 9.046709999999999141e+00 9.513579999999999259e+00 9.677789999999999893e+00 3.433959999999999901e+00 9.778940000000000410e+00 9.498789999999999623e+00 9.093260000000000787e+00 3.421489999999999920e+00 5.826599999999999557e-01 9.856099999999999861e-01 3.856580000000000119e+00 1.088889999999999914e+00 6.502749999999999808e+00 3.758929999999999882e+00 6.252449999999999619e+00 1.243870000000000031e+00 4.006339999999999790e+00 6.617969999999999686e+00 6.368669999999999831e+00 8.998139999999999361e+00 7.653200000000000003e-01 1.095469999999999944e+00 8.968349999999999156e+00 8.283000000000000362e-01 6.308679999999999843e+00 8.851660000000000750e+00 5.987029999999999852e+00 8.788200000000000456e-01 8.704950000000000188e+00 6.249419999999999753e+00 6.080910000000000259e+00 4.355139999999999567e+00 1.517649999999999944e+00 4.030529999999999724e+00 4.312149999999999928e+00 1.600850000000000106e+00 9.097789999999999822e+00 4.461439999999999628e+00 7.049479999999999968e+00 3.872860000000000191e+00 4.303860000000000241e+00 7.179700000000000415e+00 9.110910000000000508e+00 9.401030000000000442e+00 1.526929999999999898e+00 4.007799999999999585e+00 9.333339999999999748e+00 1.492850000000000010e+00 8.788230000000000430e+00 9.233290000000000219e+00 7.096359999999999779e+00 3.776269999999999794e+00 9.192360000000000753e+00 6.815319999999999823e+00 8.627789999999999182e+00 3.627740000000000187e+00 3.129020000000000135e+00 1.178109999999999991e+00 3.526930000000000121e+00 3.677500000000000213e+00 6.345100000000000406e+00 3.514130000000000198e+00 8.749879999999999214e+00 1.462849999999999984e+00 4.266729999999999912e+00 9.168760000000000687e+00 6.442000000000000171e+00 8.808249999999999247e+00 3.450270000000000170e+00 1.567749999999999977e+00 8.510949999999999349e+00 3.678300000000000125e+00 6.355970000000000120e+00 8.771630000000000038e+00 8.701050000000000395e+00 1.163229999999999986e+00 9.642590000000000217e+00 9.065409999999999968e+00 6.364469999999999850e+00 1.918970000000000065e+00 5.958099999999999508e-01 4.147129999999999761e+00 1.778410000000000046e+00 6.412200000000000122e-01 9.118069999999999453e+00 1.827499999999999902e+00 6.225279999999999703e+00 3.808409999999999851e+00 1.547979999999999912e+00 6.275459999999999816e+00 8.938890000000000668e+00 6.647999999999999687e+00 7.699399999999999578e-01 3.833829999999999849e+00 7.124069999999999681e+00 4.103200000000000180e-01 9.297439999999999927e+00 6.335130000000000372e+00 6.451900000000000190e+00 1.380719999999999947e+00 6.715650000000000119e+00 6.237870000000000026e+00 9.097110000000000696e+00 9.854300000000000281e-01 4.596429999999999794e+00 1.320340000000000069e+00 5.542700000000000404e-01 4.720439999999999969e+00 6.521630000000000038e+00 8.434700000000000530e-01 9.614589999999999748e+00 1.376419999999999977e+00 1.419259999999999966e+00 9.719799999999999329e+00 6.600819999999999688e+00 6.325859999999999594e+00 3.887410000000000032e+00 1.010490000000000110e+00 6.187059999999999782e+00 4.326830000000000176e+00 6.629769999999999719e+00 6.288420000000000343e+00 9.295859999999999346e+00 1.204639999999999933e+00 6.796470000000000233e+00 9.687490000000000379e+00 6.595270000000000188e+00 1.517370000000000108e+00 3.327929999999999833e+00 3.775720000000000187e+00 1.224709999999999965e+00 3.339840000000000142e+00 8.883380000000000720e+00 1.477610000000000090e+00 8.943949999999999179e+00 3.779250000000000220e+00 1.784049999999999914e+00 8.826200000000000045e+00 9.123810000000000642e+00 6.982920000000000016e+00 3.338849999999999874e+00 3.526740000000000208e+00 6.684479999999999755e+00 3.126780000000000115e+00 8.851390000000000313e+00 6.912530000000000285e+00 8.752159999999999940e+00 3.826049999999999951e+00 7.099639999999999951e+00 8.744490000000000762e+00 8.884909999999999641e+00 1.124579999999999913e+00 1.679219999999999935e+00 1.231870000000000021e+00 8.876899999999999791e-01 1.886619999999999964e+00 6.075239999999999974e+00 7.968100000000000183e-01 7.181589999999999918e+00 7.546500000000000430e-01 1.542270000000000030e+00 6.908870000000000289e+00 6.280350000000000321e+00 6.314519999999999911e+00 1.395229999999999970e+00 1.263779999999999903e+00 6.254850000000000243e+00 1.407289999999999930e+00 6.415379999999999860e+00
1.029462999999999973e+01 2.744060000000000166e+00 2.445559999999999956e+00 7.900000000000000078e-02 2.547930000000000028e+00 7.556040000000000312e+00 4.626000000000000251e-02 7.784620000000000317e+00 2.422149999999999803e+00 5.070999999999999813e-02 8.044650000000000745e+00 7.473559999999999981e+00 5.337810000000000166e+00 2.755990000000000162e+00 2.667269999999999808e+00 5.466330000000000133e+00 2.793289999999999829e+00 7.860179999999999723e+00 5.261050000000000004e+00 8.006050000000000111e+00 2.634119999999999795e+00 5.170410000000000394e+00 8.544800000000000395e+00 7.794019999999999726e+00 2.578609999999999847e+00 4.897870000000000168e+00 2.424939999999999873e+00 2.591650000000000009e+00 4.742479999999999585e+00 7.597730000000000317e+00 2.721099999999999852e+00 1.020179000000000080e+01 2.431340000000000057e+00 2.461269999999999847e+00 1.043119000000000085e+01 7.406859999999999999e+00 7.711129999999999818e+00 5.304310000000000080e+00 2.411890000000000089e+00 7.914469999999999672e+00 5.271309999999999718e+00 7.661819999999999631e+00 7.821159999999999890e+00 1.020559000000000083e+01 2.610739999999999839e+00 8.057769999999999655e+00 1.060098999999999947e+01 7.624670000000000059e+00 2.677239999999999842e+00 2.129809999999999981e+00 5.095790000000000042e+00 2.516770000000000174e+00 2.317520000000000024e+00 1.490000000000000005e-03 2.570879999999999832e+00 7.602990000000000137e+00 5.089470000000000383e+00 2.852840000000000042e+00 7.813329999999999664e+00 1.006286000000000058e+01 7.959279999999999688e+00 2.450320000000000054e+00 4.992429999999999701e+00 7.686169999999999725e+00 2.299510000000000165e+00 1.027613000000000021e+01 7.885640000000000427e+00 7.732709999999999972e+00 5.237809999999999633e+00 7.950249999999999595e+00 7.618750000000000355e+00 1.018432999999999922e+01 1.021053000000000033e+01 5.195560000000000400e+00 5.027499999999999858e+00 2.214299999999999879e-01 5.570599999999999774e+00 1.010543000000000013e+01 1.358099999999999863e-01 1.066198999999999941e+01 4.870949999999999669e+00 7.757999999999999619e-02 4.383000000000000090e-02 1.021033000000000079e+01 5.133440000000000225e+00 5.256549999999999834e+00 5.072169999999999845e+00 5.239040000000000141e+00 5.454460000000000086e+00 1.010308999999999990e+01 5.346750000000000114e+00 1.037099999999999966e-01 5.032980000000000231e+00 5.025830000000000020e+00 1.920399999999999885e-01 1.027543000000000006e+01 4.120390000000000441e+00 4.237420000000000186e+00 3.614539999999999864e+00 4.030710000000000015e+00 4.344359999999999999e+00 8.894099999999999895e+00 4.291909999999999670e+00 9.552199999999999136e+00 3.689639999999999809e+00 4.042480000000000295e+00 9.827819999999999112e+00 9.017580000000000595e+00 9.123839999999999506e+00 3.983740000000000059e+00 3.885149999999999881e+00 9.412209999999999965e+00 4.498300000000000409e+00 8.678729999999999833e+00 9.474289999999999878e+00 9.524319999999999453e+00 3.408479999999999954e+00 9.601649999999999352e+00 9.730840000000000600e+00 8.701040000000000774e+00 3.384069999999999911e+00 6.307899999999999618e-01 9.328499999999999570e-01 3.608299999999999841e+00 5.312700000000000200e-01 6.002849999999999575e+00 3.642100000000000115e+00 6.170700000000000074e+00 9.594099999999999850e-01 3.707759999999999945e+00 5.844129999999999825e+00 6.343099999999999739e+00 8.785470000000000113e+00 6.886999999999999789e-01 9.654199999999999449e-01 8.901389999999999247e+00 1.042289999999999939e+00 6.287950000000000372e+00 4.152289999999999814e+00 1.408660000000000023e+00 3.662710000000000132e+00 4.280920000000000059e+00 1.770080000000000098e+00 9.192890000000000228e+00 4.218110000000000248e+00 6.916409999999999947e+00 4.104720000000000368e+00 4.412650000000000183e+00 7.066620000000000346e+00 8.906959999999999766e+00 9.476449999999999818e+00 1.527709999999999901e+00 3.747489999999999988e+00 9.176849999999999952e+00 1.540960000000000107e+00 9.012109999999999843e+00 8.944269999999999499e+00 6.714430000000000121e+00 3.709420000000000162e+00 9.715820000000000789e+00 7.196500000000000341e+00 9.365439999999999543e+00 3.676390000000000047e+00 3.504869999999999930e+00 1.186989999999999990e+00 3.463680000000000092e+00 3.278950000000000031e+00 6.591280000000000250e+00 3.686370000000000147e+00 8.769880000000000564e+00 1.338600000000000012e+00 3.605960000000000054e+00 8.803089999999999193e+00 6.564680000000000071e+00 8.599840000000000373e+00 3.419950000000000045e+00 1.613639999999999963e+00 8.817769999999999442e+00 3.878049999999999997e+00 6.361519999999999619e+00 8.814579999999999416e+00 8.653010000000000090e+00 1.253530000000000033e+00 9.006779999999999120e+00 9.005969999999999587e+00 6.212539999999999729e+00 1.645920000000000050e+00 5.417999999999999483e-01 3.901510000000000034e+00 1.501069999999999904e+00 5.452900000000000524e-01 8.943170000000000286e+00 1.244059999999999944e+00 6.006789999999999630e+00 3.587130000000000152e+00 1.829900000000000082e+00 5.901640000000000441e+00 9.114670000000000272e+00 6.939460000000000406e+00 8.605699999999999461e-01 3.875779999999999781e+00 6.854899999999999771e+00 1.161820000000000075e+00 8.741110000000000824e+00 6.586000000000000298e+00 6.479919999999999902e+00 3.981739999999999835e+00 7.011919999999999931e+00 6.243030000000000079e+00 9.242050000000000765e+00 1.253249999999999975e+00 4.145129999999999981e+00 1.066940000000000000e+00 1.089730000000000087e+00 4.002510000000000012e+00 6.195929999999999715e+00 1.159310000000000063e+00 9.547439999999999927e+00 1.109250000000000069e+00 1.393909999999999982e+00 9.445320000000000604e+00 5.932719999999999771e+00 5.973919999999999675e+00 4.452370000000000161e+00 1.541590000000000016e+00 6.132929999999999993e+00 4.486550000000000260e+00 6.747910000000000075e+00 6.077860000000000262e+00 9.722269999999999968e+00 1.414400000000000102e+00 6.302489999999999704e+00 1.009732999999999947e+01 6.695400000000000240e+00 1.715109999999999912e+00 3.328120000000000189e+00 3.599489999999999856e+00 1.605750000000000011e+00 3.212680000000000202e+00 8.706640000000000157e+00 1.733130000000000059e+00 8.622210000000000818e+00 3.550930000000000142e+00 1.664740000000000109e+00 8.540810000000000457e+00 8.534330000000000638e+00 6.536599999999999966e+00 3.587509999999999977e+00 4.108550000000000146e+00 6.590510000000000090e+00 3.843599999999999905e+00 9.183389999999999276e+00 6.826870000000000438e+00 8.974249999999999616e+00 3.968550000000000022e+00 7.034489999999999910e+00 9.060980000000000700e+00 8.939130000000000464e+00 9.897299999999999986e-01 1.565099999999999936e+00 1.155440000000000023e+00 1.202749999999999986e+00 1.332370000000000054e+00 6.141409999999999592e+00 1.278540000000000010e+00 6.703389999999999738e+00 1.111920000000000019e+00 1.042829999999999924e+00 6.737770000000000259e+00 6.223530000000000229e+00 6.107219999999999871e+00 1.544659999999999922e+00 1.113629999999999898e+00 6.270940000000000403e+00 1.824149999999999938e+00 6.118479999999999919e+00 6.508720000000000283e+00 6.783970000000000056e+00 1.292300000000000004e+00 6.557730000000000281e+00 6.966409999999999769e+00 6.718309999999999782e+00
2.557999999999999857e-02 2.533850000000000158e+00 2.658669999999999867e+00 1.016286000000000023e+01 2.439109999999999889e+00 7.350690000000000168e+00 1.032876000000000083e+01 7.730520000000000280e+00 2.236270000000000202e+00 1.015015999999999963e+01 7.986159999999999926e+00 8.077809999999999491e+00 5.229090000000000238e+00 2.417549999999999866e+00 2.449469999999999814e+00 5.267500000000000071e+00 2.777140000000000164e+00 7.467609999999999637e+00 5.021930000000000227e+00 7.831809999999999938e+00 2.715819999999999901e+00 5.300650000000000084e+00 7.703450000000000131e+00 7.424070000000000391e+00 2.830560000000000187e+00 4.790169999999999817e+00 2.532360000000000166e+00 2.585519999999999818e+00 5.391219999999999679e+00 7.789930000000000021e+00 2.661430000000000184e+00 1.063232999999999961e+01 2.213900000000000201e+00 2.704050000000000065e+00 1.062603000000000009e+01 7.546140000000000292e+00 7.806429999999999758e+00 5.310399999999999565e+00 2.604119999999999990e+00 7.992560000000000109e+00 5.348760000000000403e+00 7.700470000000000148e+00 7.716920000000000002e+00 1.042442999999999920e+01 2.459639999999999826e+00 8.146890000000000853e+00 1.046513000000000027e+01 7.745479999999999698e+00 2.556750000000000078e+00 2.706820000000000004e+00 4.957239999999999647e+00 2.591470000000000162e+00 2.478310000000000013e+00 9.862890000000000157e+00 2.480459999999999887e+00 8.548370000000000246e+00 5.043949999999999712e+00 2.922969999999999846e+00 7.520950000000000024e+00 2.781699999999999728e-01 7.697460000000000413e+00 2.417749999999999844e+00 4.985570000000000057e+00 8.085330000000000794e+00 2.453450000000000131e+00 1.006645999999999930e+01 7.865590000000000082e+00 7.882780000000000342e+00 5.010620000000000296e+00 7.842979999999999841e+00 7.749290000000000234e+00 1.020565999999999995e+01 2.159399999999999931e-01 5.383549999999999613e+00 5.323439999999999728e+00 7.875000000000000056e-02 4.944049999999999834e+00 6.486000000000000099e-02 1.013205999999999918e+01 1.060543000000000013e+01 4.683440000000000047e+00 9.400999999999999635e-02 1.039733000000000018e+01 1.071600000000000052e-01 5.149320000000000341e+00 5.238889999999999603e+00 5.032729999999999926e+00 5.535009999999999764e+00 5.344129999999999825e+00 1.007951000000000086e+01 5.321710000000000385e+00 1.053162999999999982e+01 5.370630000000000237e+00 5.421999999999999709e+00 5.109999999999999959e-02 1.000633999999999979e+01 4.012640000000000207e+00 3.912999999999999812e+00 3.628579999999999917e+00 3.954000000000000181e+00 4.300320000000000142e+00 8.893520000000000536e+00 3.656620000000000203e+00 9.264459999999999695e+00 3.559680000000000177e+00 3.967360000000000220e+00 9.992610000000000881e+00 8.864879999999999427e+00 9.217119999999999536e+00 3.951439999999999841e+00 4.092929999999999957e+00 9.347709999999999297e+00 3.910519999999999996e+00 8.886469999999999203e+00 8.753470000000000084e+00 9.342249999999999943e+00 3.827799999999999869e+00 9.207520000000000593e+00 9.294040000000000745e+00 9.281840000000000757e+00 4.139999999999999680e+00 9.696799999999999864e-01 1.007640000000000091e+00 3.559890000000000221e+00 9.148600000000000065e-01 5.804050000000000153e+00 3.980659999999999865e+00 6.017439999999999678e+00 1.275079999999999991e+00 4.157530000000000392e+00 6.256850000000000023e+00 6.432019999999999627e+00 9.028079999999999217e+00 7.091899999999999871e-01 1.168560000000000043e+00 8.810340000000000060e+00 8.211899999999999755e-01 6.199880000000000280e+00 3.067759999999999820e+00 1.629569999999999963e+00 3.345089999999999897e+00 4.227949999999999875e+00 1.469109999999999916e+00 8.568830000000000169e+00 3.770719999999999850e+00 6.541690000000000005e+00 3.645239999999999814e+00 4.179210000000000313e+00 6.862879999999999647e+00 8.934240000000000848e+00 8.765140000000000597e+00 1.246809999999999974e+00 3.560090000000000199e+00 9.418100000000000804e+00 1.392290000000000028e+00 8.798249999999999460e+00 9.220819999999999794e+00 6.719219999999999970e+00 3.858490000000000197e+00 8.928129999999999455e+00 6.328280000000000349e+00 1.158549999999999969e+00 4.349149999999999849e+00 3.182910000000000128e+00 8.489499999999999824e-01 3.595450000000000035e+00 3.544090000000000185e+00 6.621000000000000441e+00 3.952440000000000175e+00 8.758720000000000283e+00 1.212269999999999959e+00 4.039609999999999701e+00 8.940070000000000405e+00 6.552570000000000228e+00 9.634969999999999146e+00 3.549900000000000055e+00 1.297700000000000076e+00 8.778959999999999653e+00 3.565430000000000099e+00 6.392590000000000217e+00 9.002340000000000231e+00 8.898709999999999454e+00 1.154859999999999998e+00 9.050359999999999516e+00 8.826919999999999433e+00 6.496240000000000236e+00 7.559700000000000308e-01 7.565899999999999848e-01 3.245249999999999968e+00 1.743200000000000083e+00 1.763549999999999951e+00 7.902029999999999887e+00 1.330480000000000107e+00 7.098110000000000142e+00 5.692890000000000228e+00 1.463920000000000110e+00 6.972190000000000332e+00 8.661519999999999442e+00 6.241279999999999717e+00 7.598399999999999599e-01 3.862029999999999852e+00 6.906850000000000378e+00 9.667900000000000382e-01 8.887430000000000163e+00 6.493649999999999700e+00 6.422119999999999607e+00 3.863259999999999916e+00 7.004179999999999851e+00 6.298860000000000348e+00 9.311339999999999506e+00 1.691140000000000088e+00 3.389330000000000176e+00 1.384819999999999940e+00 1.191920000000000091e+00 4.458249999999999602e+00 6.816270000000000273e+00 1.541749999999999954e+00 8.912359999999999616e+00 9.477700000000000014e-01 1.308840000000000003e+00 9.881209999999999383e+00 6.138329999999999842e+00 6.788199999999999790e+00 4.396460000000000257e+00 1.321239999999999970e+00 6.268419999999999881e+00 4.352219999999999978e+00 6.232870000000000132e+00 6.608509999999999884e+00 9.764849999999999142e+00 9.499800000000000466e-01 6.731799999999999784e+00 9.625730000000000786e+00 6.318369999999999820e+00 1.510380000000000056e+00 4.164869999999999628e+00 4.169290000000000163e+00 1.567579999999999973e+00 4.088689999999999714e+00 8.999050000000000438e+00 1.118090000000000028e+00 9.010650000000000048e+00 3.428799999999999848e+00 1.396930000000000005e+00 9.755819999999999936e+00 8.844889999999999475e+00 6.658210000000000406e+00 3.692379999999999995e+00 3.718150000000000066e+00 6.680279999999999774e+00 3.643860000000000099e+00 8.861259999999999692e+00 6.133289999999999687e+00 9.022940000000000182e+00 3.753880000000000106e+00 6.821480000000000210e+00 8.763279999999999959e+00 8.768700000000000827e+00 1.525390000000000024e+00 1.092489999999999961e+00 6.395899999999999919e-01 8.499600000000000488e-01 1.787379999999999969e+00 5.641399999999999970e+00 1.374290000000000012e+00 6.272669999999999746e+00 1.148840000000000083e+00 9.558210000000000761e+00 6.254579999999999806e+00 6.864160000000000039e+00 6.905269999999999797e+00 1.658449999999999980e+00 1.293400000000000105e+00 6.116229999999999833e+00 1.608680000000000110e+00 6.259190000000000254e+00 6.149149999999999672e+00 7.111699999999999910e+00 9.058599999999999985e-01 6.722509999999999764e+00 6.587049999999999628e+00 6.406010000000000204e+00