2.228948733692453388e+00 -1.047622148406752096e+01 -8.470287429270184631e+00 -1.047622148406752096e+01 -1.834266701284899881e+00 -1.594220527632161222e+01 -8.470287429270184631e+00 -1.594220527632161222e+01 -4.621572395815589829e+01
-2.191537477075087992e+01 -1.887502005092919788e+01 -7.442621446054137335e-01 -1.887502005092919788e+01 -1.267768005664265907e+01 -2.159210842605137515e+00 -7.442621446054137335e-01 -2.159210842605137515e+00 -6.489893159023047531e+01
4.199567569134409695e+01 3.829844649063607331e+00 -1.874837937913687824e+01 3.829844649063607331e+00 3.848660131717549149e+01 4.524438481326450656e+00 -1.874837937913687824e+01 4.524438481326450656e+00 1.312800598022422705e+01
8.692426352412702784e+00 -1.722947610869696078e+01 -1.405661906080437085e+01 -1.722947610869696078e+01 -3.075574148851858425e+00 1.020717196742882571e+01 -1.405661906080437085e+01 1.020717196742882571e+01 -2.803768621503352776e+01
3.673607122669005065e+01 2.208104691572063238e+00 3.612905870533158037e+00 2.208104691572063238e+00 2.714786050503174053e+01 4.577079596089430602e+00 3.612905870533158037e+00 4.577079596089430602e+00 4.565616672584975788e+01
1.106418797472070636e+01 1.234459650073830073e+00 -8.960924526119747213e+00 1.234459650073830073e+00 2.144027288230219597e+01 2.652821902251153929e+01 -8.960924526119747213e+00 2.652821902251153929e+01 1.919423628276200500e+00
-1.952781087291308282e+01 -1.353495837093652732e+00 -1.336771092780925407e+01 -1.353495837093652732e+00 -1.527898666708280473e+01 7.211394728788100394e+00 -1.336771092780925407e+01 7.211394728788100394e+00 -6.344406510104624175e+01
-1.305707309086999857e+01 6.000297587464798355e+00 1.487811243715191623e+01 6.000297587464798355e+00 1.711091502640627260e+00 9.345935006224115327e+00 1.487811243715191623e+01 9.345935006224115327e+00 -4.558458041593688392e+01
-2.095268144340465710e+00 6.010636551377439574e-01 6.307430336952647210e+00 6.010636551377439574e-01 -1.443220145926244768e+01 8.420177670635602851e+00 6.307430336952647210e+00 8.420177670635602851e+00 -3.834508222414142153e+01
-2.707997052380363101e+01 6.339498701927349877e+00 -6.585598037381592107e+00 6.339498701927349877e+00 -2.226445226893027929e+00 -6.581784729217373453e+00 -6.585598037381592107e+00 -6.581784729217373453e+00 -9.539925152616795856e+00
-3.337672345950327468e+01 -8.798562862684882191e+00 5.863175137595168174e+00 -8.798562862684882191e+00 -2.386302649897250916e+01 -5.924318629362251620e+00 5.863175137595168174e+00 -5.924318629362251620e+00 -3.423956732126237057e+01
1.738887384905813605e+01 -1.318667404920401243e+00 2.341753273767826471e+01 -1.318667404920401243e+00 8.152593284639266358e+00 -3.767358264063146667e+00 2.341753273767826471e+01 -3.767358264063146667e+00 -3.295216841013081677e+01
3.924325327029627175e+01 5.511301195930221830e+00 1.199116162918754114e+00 5.511301195930221830e+00 2.027503565526722085e+01 7.001551229641193030e-01 1.199116162918754114e+00 7.001551229641193030e-01 2.435139589146428207e+01
-3.377899632077283343e+01 6.413547973616968711e+00 9.436376460628096652e+00 6.413547973616968711e+00 -4.192179956250389239e+01 2.572192309765488183e+00 9.436376460628096652e+00 2.572192309765488183e+00 -5.865190796359011927e+01
-8.938240091706044055e+00 -3.573363436346014499e+00 -3.106111724824004217e+00 -3.573363436346014499e+00 3.367173212530472082e+00 -8.411814345732814502e+00 -3.106111724824004217e+00 -8.411814345732814502e+00 -9.187436142630143188e-01
-4.133659112733459295e+01 -7.843155567383350402e+00 -4.518969978337161741e+00 -7.843155567383350402e+00 -2.161303356895307459e+01 -6.511432922783082944e+00 -4.518969978337161741e+00 -6.511432922783082944e+00 -2.175909600586268056e+01
-4.913770771924441227e+00 -4.976873918054737445e+00 9.620675887882892852e+00 -4.976873918054737445e+00 7.310617688141047843e+00 -7.553624634900674151e-01 9.620675887882892852e+00 -7.553624634900674151e-01 -2.318049708257327879e+01
1.074913156281207538e+00 -2.135742865795428003e+01 -5.489753415937593140e+00 -2.135742865795428003e+01 -2.645062046907289499e+01 -8.142774981333458229e+00 -5.489753415937593140e+00 -8.142774981333458229e+00 -4.893802242640685307e+01
-3.546217576570470698e+01 8.708953799789224348e+00 1.514788402002259993e+01 8.708953799789224348e+00 -3.838672434830488811e+01 -9.331181582180027689e+00 1.514788402002259993e+01 -9.331181582180027689e+00 -2.515770476325927518e+01
9.930932773386823342e+00 6.973267072450041404e+00 -9.592611285224728945e+00 6.973267072450041404e+00 1.585361883499333757e+01 -1.301955426024819040e+01 -9.592611285224728945e+00 -1.301955426024819040e+01 3.053361962821258935e+00
-1.463154333211443792e+01 -1.017392378034847766e+01 -1.118040287134636124e+01 -1.017392378034847766e+01 -1.901477581797199079e+01 -1.823337580952461678e+01 -1.118040287134636124e+01 -1.823337580952461678e+01 -4.706693089875789582e+01
-1.463428145519118484e+00 -3.166958791093818704e+01 2.140885052794381682e+00 -3.166958791093818704e+01 -6.859700037630308778e+00 1.103364524810574032e+01 2.140885052794381682e+00 1.103364524810574032e+01 -8.136219250138932324e+00
4.462953736495336443e+01 -3.032394076233913882e+00 -1.863137352188639184e+01 -3.032394076233913882e+00 5.684435317796321385e+01 -5.440324769001115612e+00 -1.863137352188639184e+01 -5.440324769001115612e+00 3.468657223845901427e+01
-3.354992424759111636e+00 -5.168446737510238975e+00 -2.007958641908280217e+00 -5.168446737510238975e+00 -7.347137206187036362e+00 -1.988137020375312092e-01 -2.007958641908280217e+00 -1.988137020375312092e-01 -6.489469683393147648e+01
8.945712206942189937e+00 2.313696353345617140e+01 -1.771162348605845693e+01 2.313696353345617140e+01 2.793419702363338075e+01 -2.168345940408581640e+00 -1.771162348605845693e+01 -2.168345940408581640e+00 -2.402558741643453288e+01
2.363916640571038030e+01 -1.067661954982681749e+01 1.308556153667839839e+00 -1.067661954982681749e+01 2.160581889506555342e+01 -1.130265386798196214e+00 1.308556153667839839e+00 -1.130265386798196214e+00 -1.490183797124676879e+01
-4.574598344304307318e+01 -6.847807552830467159e+00 5.197982415785479482e+00 -6.847807552830467159e+00 -3.355980970757725856e+01 -2.614508410219889889e+00 5.197982415785479482e+00 -2.614508410219889889e+00 -5.802040822946994325e+01
1.169315170324617270e+01 8.654334349495441003e+00 -1.151300436662699100e+00 8.654334349495441003e+00 1.173757368150396729e+01 -3.368155211502247504e+00 -1.151300436662699100e+00 -3.368155211502247504e+00 -3.994517438329754810e+01
-2.114038345757241188e+01 1.019197577619364203e+01 3.271677342207965911e+00 1.019197577619364203e+01 -3.141410185158609991e+01 3.532907794365231169e+00 3.271677342207965911e+00 3.532907794365231169e+00 -8.475645248668451259e+00
-6.931229571305316028e+00 7.385617962797655700e+00 2.196502249673712548e+00 7.385617962797655700e+00 2.684037536159523007e+00 1.762076094048527253e+01 2.196502249673712548e+00 1.762076094048527253e+01 2.054111036205065588e+01
-9.559742276938878902e+00 -2.026293118499457258e+00 1.345030739611875248e+01 -2.026293118499457258e+00 -1.877804902498069950e+01 -9.165579450306674758e+00 1.345030739611875248e+01 -9.165579450306674758e+00 5.251015527838712060e+00
3.639237821266483053e+01 1.960505484441911861e+01 6.578982517047858636e+00 1.960505484441911861e+01 5.691941012226465801e+01 -3.759429937258512933e+00 6.578982517047858636e+00 -3.759429937258512933e+00 1.412935760136299912e+01
-2.495877374678786609e+01 -4.720512662248984581e-01 1.652036623194365106e+01 -4.720512662248984581e-01 -2.126771531096779100e+01 9.837475026555365432e+00 1.652036623194365106e+01 9.837475026555365432e+00 -2.158747607378575495e+01
-4.367700074176851643e+01 2.390926051400808827e+00 1.253406466536750941e+01 2.390926051400808827e+00 -1.289077894914466427e+01 -7.274390964507236212e+00 1.253406466536750941e+01 -7.274390964507236212e+00 -7.223662476259440268e+01
-2.081867793392854882e+00 -2.082601628997211307e+01 -2.213591284374791357e+01 -2.082601628997211307e+01 -1.601265012953696498e+01 3.411814581632505394e+00 -2.213591284374791357e+01 3.411814581632505394e+00 -2.486633948333556532e+01
-1.233132699631521945e+01 1.737772677631869556e+01 3.049303552907501214e+00 1.737772677631869556e+01 -1.203665581642038340e+01 1.014928958046775875e+01 3.049303552907501214e+00 1.014928958046775875e+01 -7.617218835420586309e+00
3.271618622220211137e+01 -8.846147632351298640e+00 1.406028044596017779e+01 -8.846147632351298640e+00 3.819139940458843085e+01 -9.859698231417116432e+00 1.406028044596017779e+01 -9.859698231417116432e+00 6.076303863489582291e+00
-4.151541844423253025e+01 -9.304459581321625095e+00 9.824969781884407283e-01 -9.304459581321625095e+00 -3.703540120723786799e+01 4.646880916365200953e+00 9.824969781884407283e-01 4.646880916365200953e+00 -8.353516797456255460e+01
2.531886907396746977e+01 2.585120447315381043e+00 -1.232937669937396130e+01 2.585120447315381043e+00 2.503341211941473077e+01 7.158422303644162987e+00 -1.232937669937396130e+01 7.158422303644162987e+00 1.104768147265009937e+00
-1.165920242614679658e+01 1.081693525433007608e+01 -1.629367946726484817e+01 1.081693525433007608e+01 2.560976809650494346e+01 -6.057562287791526501e+00 -1.629367946726484817e+01 -6.057562287791526501e+00 -3.795076921725185315e+01
-2.555663847738372851e+01 1.386716461003269840e+00 1.102409948524792860e+01 1.386716461003269840e+00 -3.569403643545089722e+01 -4.930933505435163511e+00 1.102409948524792860e+01 -4.930933505435163511e+00 -6.424562423900442809e+01
6.677803138125385729e+00 -1.469242873427467266e+01 -6.938897237031561360e+00 -1.469242873427467266e+01 2.040304389605281443e+01 -4.780944747971659581e+00 -6.938897237031561360e+00 -4.780944747971659581e+00 -7.641143895509196149e+00
1.091111987875111744e+01 -8.705554021471165527e+00 -5.176139212442901538e+00 -8.705554021471165527e+00 6.857105186853488910e+00 -4.859266323781664454e+00 -5.176139212442901538e+00 -4.859266323781664454e+00 4.231470604776059474e+01
7.240372905497601153e+00 1.694834773035601261e+00 -4.550388854460635457e+00 1.694834773035601261e+00 -2.264425882026616677e+01 -2.933983526506189765e+00 -4.550388854460635457e+00 -2.933983526506189765e+00 -1.759318368416976952e+01
-2.084176010326510209e+01 1.364335577706231639e+01 -8.298768991867092382e+00 1.364335577706231639e+01 -1.057716274056505767e+01 -1.554115021021746834e+01 -8.298768991867092382e+00 -1.554115021021746834e+01 -3.467476048160429514e+01
-1.223654188274401733e+01 -1.100314008699980750e+00 1.237613743136819977e+01 -1.100314008699980750e+00 -3.245833621456284135e+01 4.300596253812424941e+00 1.237613743136819977e+01 4.300596253812424941e+00 -2.829101980432254848e+01
5.995908574022767112e+00 -1.759882687018201608e+01 1.658724672861661631e+01 -1.759882687018201608e+01 5.194820957366804492e+00 -2.062098750312166473e+01 1.658724672861661631e+01 -2.062098750312166473e+01 -6.011783108196068071e+01
-2.903687532329685439e+01 -5.561763839771283635e+00 -4.305597377631442235e+00 -5.561763839771283635e+00 -3.479176255352800951e+01 8.348976287160285281e+00 -4.305597377631442235e+00 8.348976287160285281e+00 -9.844974471100892188e+00
-3.789363916986579994e+01 -6.125250497294058682e+00 -1.016605733500884234e+01 -6.125250497294058682e+00 -1.480283847494190042e+01 -5.217895940546535272e-01 -1.016605733500884234e+01 -5.217895940546535272e-01 -4.285316327026173155e+01
-3.788639686570240883e+01 8.740758282379115229e+00 1.545888312914709406e+00 8.740758282379115229e+00 -4.008865004751718430e+01 4.734791028932293422e+00 1.545888312914709406e+00 4.734791028932293422e+00 -4.876614479279615466e+01
2.802402379024815815e+01 3.387952975201059758e+00 -2.795652295032846180e+00 3.387952975201059758e+00 3.098218707166691388e+01 1.041083413274302316e+01 -2.795652295032846180e+00 1.041083413274302316e+01 4.982503858258466423e+00
-6.414311148629320769e+01 3.412440963631209190e+00 1.234891426200476872e+01 3.412440963631209190e+00 -4.224158594849530601e+01 -1.511334871174179995e+01 1.234891426200476872e+01 -1.511334871174179995e+01 -5.578479787534316614e+01
8.250799806257594682e+00 2.581351774578395464e+01 1.338587346609543971e+01 2.581351774578395464e+01 -3.006090519029920927e+01 -3.903891992710213810e+00 1.338587346609543971e+01 -3.903891992710213810e+00 -3.175796113492704720e+01
9.059850605179892824e+00 -1.000317310690618733e+01 5.099416980294134483e+00 -1.000317310690618733e+01 -2.452855668233561914e+01 1.351818548668333086e+01 5.099416980294134483e+00 1.351818548668333086e+01 -3.547776867815379376e+01
2.656426483245196479e+00 -1.175410537878580719e+01 1.001063859351675411e+00 -1.175410537878580719e+01 6.588536801386763564e+00 -1.097817382311355239e+01 1.001063859351675411e+00 -1.097817382311355239e+01 -4.157594013573875458e+01
4.384891097687523143e+01 -1.266441199790762440e+01 -9.540648899939224492e+00 -1.266441199790762440e+01 1.656855632014995194e+01 -1.263377752596311510e+01 -9.540648899939224492e+00 -1.263377752596311510e+01 -1.305085542858354763e+01
1.409453248780895152e+01 6.054046599885664293e+00 -7.610854121302091713e+00 6.054046599885664293e+00 1.812581667155331289e+01 1.701320223496657569e+00 -7.610854121302091713e+00 1.701320223496657569e+00 1.059298731138244065e+01
-3.371141673264328631e+01 2.394971907742350226e+01 1.572267111499973113e+00 2.394971907742350226e+01 -4.103984635798920522e+01 -1.472534455125093444e+01 1.572267111499973113e+00 -1.472534455125093444e+01 -6.987853245595461260e+01
2.104213106895261731e+01 -9.884891982050309167e+00 -1.180327919888708266e+01 -9.884891982050309167e+00 8.591040930179078217e+00 -1.155551569997060390e+01 -1.180327919888708266e+01 -1.155551569997060390e+01 -1.035141078675607496e+01
-3.894533691503357709e+00 1.323706069011945763e+00 9.623284149698125844e+00 1.323706069011945763e+00 -1.652897226738405223e+01 6.490525105885852852e+00 9.623284149698125844e+00 6.490525105885852852e+00 5.270545064437524019e+00
5.750211906975022380e+00 -1.102747492275645591e+01 -9.312286587768753288e-02 -1.102747492275645591e+01 1.639084329859624134e+01 -4.477809870397188696e+00 -9.312286587768753288e-02 -4.477809870397188696e+00 3.695431951271140036e+01
-2.152694440028752609e+01 -7.919312385359186246e-01 -5.748095194303788347e+00 -7.919312385359186246e-01 -3.270624159497036221e+00 1.419611920876228872e+01 -5.748095194303788347e+00 1.419611920876228872e+01 -3.143214960960634841e+01
-1.319155588399303625e+01 -1.198740744139223935e+01 4.309181111296298994e+00 -1.198740744139223935e+01 -1.702546992885248400e+01 5.260880828637041873e+00 4.309181111296298994e+00 5.260880828637041873e+00 -4.798297928430034887e+01
3.459220331760791112e+01 7.888956217139361904e+00 5.582335588889367095e+00 7.888956217139361904e+00 3.114254944733176700e+01 1.472285207210910052e+00 5.582335588889367095e+00 1.472285207210910052e+00 -1.359157425793193497e+01
-3.285337827649414510e+00 4.816153575880518289e+00 -1.522134682182622001e+01 4.816153575880518289e+00 9.713556807807740556e-01 -4.025879451001248555e+00 -1.522134682182622001e+01 -4.025879451001248555e+00 1.947099015645387965e+01
-4.500178660731874913e+01 -7.754309650856661129e+00 8.626997155279847007e+00 -7.754309650856661129e+00 -2.404381241574137817e+01 5.590109473035671961e+00 8.626997155279847007e+00 5.590109473035671961e+00 -6.356999276722142866e+01
-5.508675043854162823e+01 -1.282754535838608767e+01 -2.702621358733121038e-01 -1.282754535838608767e+01 -5.302059572186684022e+01 7.721327614546742435e-01 -2.702621358733121038e-01 7.721327614546742435e-01 -7.716541197060350044e+01
-1.731089041070685397e+01 3.247818334618859382e+01 -5.589981433743685280e+00 3.247818334618859382e+01 -6.275655767471712387e+00 -7.859619944887527687e+00 -5.589981433743685280e+00 -7.859619944887527687e+00 -2.888323174109566693e+01
4.319043685269406296e+00 5.126276097333552606e+00 1.565612638229628928e+00 5.126276097333552606e+00 -2.489668911730774781e+01 -1.480977180450634023e+01 1.565612638229628928e+00 -1.480977180450634023e+01 -3.829940270461667495e+01
2.201716790938640855e+01 -1.616910402029934701e+01 -3.759998479776074376e-01 -1.616910402029934701e+01 2.281753128532993813e+01 1.982095019153183557e+01 -3.759998479776074376e-01 1.982095019153183557e+01 -1.664394346461507723e+01
1.756418581829960956e+01 -1.694048670090319675e+01 1.816414343561412537e+01 -1.694048670090319675e+01 -3.168154532253178335e+00 -9.044735946807133331e+00 1.816414343561412537e+01 -9.044735946807133331e+00 -6.422111678837414850e+00
-3.693755666572474894e+01 1.777199972528974925e+01 1.832461383832995239e+01 1.777199972528974925e+01 -2.045217323873450965e+01 2.716873243107709168e+00 1.832461383832995239e+01 2.716873243107709168e+00 -6.282098621456184162e+01
2.950438500996410696e+00 2.254059620251010543e+01 -1.358257233601805858e+01 2.254059620251010543e+01 9.640617040549535943e+00 -6.500859334108318954e+00 -1.358257233601805858e+01 -6.500859334108318954e+00 6.043839354280089005e+00
2.619619323807938116e+01 6.133804924743045284e+00 7.612672471121819662e-01 6.133804924743045284e+00 2.610475744476204341e+01 3.854772341776639077e+00 7.612672471121819662e-01 3.854772341776639077e+00 3.827121056546059208e+01
5.812201741027462276e+01 -1.384550782479226072e+01 1.104716711720716837e+01 -1.384550782479226072e+01 6.294584277494719515e+01 -8.763717742551017764e+00 1.104716711720716837e+01 -8.763717742551017764e+00 2.074309328045545797e+01
-2.697722728235111589e+01 3.289168963985196648e+00 -1.055433911765793376e+01 3.289168963985196648e+00 -2.809369619812902741e+01 8.826102713918642095e+00 -1.055433911765793376e+01 8.826102713918642095e+00 -2.284424936914913928e+01
2.995308877274016179e+00 -7.241792275614665764e-01 -1.390053972823948492e+01 -7.241792275614665764e-01 -2.616448900372308728e+01 -3.930058464461656520e+00 -1.390053972823948492e+01 -3.930058464461656520e+00 -2.819115612676100113e+01
-1.549844917868764993e+00 -8.102465534279453152e+00 2.094312598501321077e+01 -8.102465534279453152e+00 -9.479776687391229473e+00 -2.252512063718915325e+00 2.094312598501321077e+01 -2.252512063718915325e+00 -1.235141590384403898e+01
-2.672414139462140881e+01 6.445971826021463791e-01 3.187829502575757257e+00 6.445971826021463791e-01 -1.829634958164644942e+01 1.236783185620542236e+00 3.187829502575757257e+00 1.236783185620542236e+00 -1.068351490665618186e+01
-1.924402399645339656e+01 1.010497187803875363e+01 1.502288507935018025e+01 1.010497187803875363e+01 -7.299053638886557671e+00 3.341796228148186998e+00 1.502288507935018025e+01 3.341796228148186998e+00 -1.998130634151148755e+01
7.515685149340503024e+00 4.659393894004950631e-01 7.979635611353119273e+00 4.659393894004950631e-01 3.136538490685461533e-01 -3.912632690231381716e+00 7.979635611353119273e+00 -3.912632690231381716e+00 -3.330713051725465590e+01
3.249950263772124970e+01 5.483845545274996347e+00 5.600634676495899633e+00 5.483845545274996347e+00 1.486449025430130710e+01 1.182576243270665461e+00 5.600634676495899633e+00 1.182576243270665461e+00 1.729370278911575554e+01
-2.131706535782776690e+00 -1.011053373029271185e+01 -4.745712829190615878e+00 -1.011053373029271185e+01 -1.400014624191134160e+01 -1.260504921755165597e+01 -4.745712829190615878e+00 -1.260504921755165597e+01 -1.745313571261639396e+01
6.013431811211441547e-01 -7.895782054011978301e-01 8.955546261268800379e+00 -7.895782054011978301e-01 1.113918772041659366e+01 -8.259013979882418255e+00 8.955546261268800379e+00 -8.259013979882418255e+00 -2.965375931061061721e+01
2.586100545492450919e+01 3.385586715751104148e+00 8.643629789981551070e+00 3.385586715751104148e+00 4.839846522631621184e+01 2.236739827468818831e+01 8.643629789981551070e+00 2.236739827468818831e+01 -3.757996006985286908e+00
-5.096781582532813992e+00 -3.190156122619836943e+00 4.104411933287215319e+00 -3.190156122619836943e+00 -2.227766800318449825e+01 1.981018533051756458e+00 4.104411933287215319e+00 1.981018533051756458e+00 -3.006694962487026501e+01
-4.174159171327338491e+00 -1.779491362697713086e+01 7.376477981692374897e+00 -1.779491362697713086e+01 -1.186542208596222636e+01 -3.606066818569135801e+00 7.376477981692374897e+00 -3.606066818569135801e+00 -2.691117303513889780e+01
-2.012353276677174208e+01 4.804173428313177396e+00 -6.724158526453469342e+00 4.804173428313177396e+00 -2.326074664778586865e+01 1.179167819171341769e+01 -6.724158526453469342e+00 1.179167819171341769e+01 -2.454274852756384817e+01
6.350848322067729868e+00 -2.452240284886250787e+00 -1.511991719673368095e+01 -2.452240284886250787e+00 -8.953080326339172501e+00 -5.135669701092484551e-01 -1.511991719673368095e+01 -5.135669701092484551e-01 6.373323398630430958e+00
3.277057933409696489e+01 -7.126697364681033875e+00 -1.098416590073964727e+01 -7.126697364681033875e+00 4.444976525207218998e+01 3.077303756471494900e+00 -1.098416590073964727e+01 3.077303756471494900e+00 8.154635158273245921e+00
1.244240794657126692e+01 5.008614176166561016e+00 -7.280234838902718053e+00 5.008614176166561016e+00 1.513012445784661786e+01 7.408305907894022546e+00 -7.280234838902718053e+00 7.408305907894022546e+00 2.434349889909849907e+01
4.183156402651712824e+01 -1.694274986117378479e+00 -7.809295105284468796e+00 -1.694274986117378479e+00 3.490440415968908638e+01 1.465472746049178632e+01 -7.809295105284468796e+00 1.465472746049178632e+01 2.529026359918095679e+01
2.230516760447939895e+00 -1.800829298006604073e+00 -5.780833236236815331e+00 -1.800829298006604073e+00 -5.994945829669478421e+00 6.706209963254824657e+00 -5.780833236236815331e+00 6.706209963254824657e+00 -4.296130931734045788e+01
2.130406003191824382e+01 1.005183874854396198e+00 -1.063648006815809843e+01 1.005183874854396198e+00 1.208793826547579542e+01 -6.638443453582527631e+00 -1.063648006815809843e+01 -6.638443453582527631e+00 -5.950639337414168750e+01
4.052392234096396706e+00 4.383996149163092437e-01 -1.198389323770655324e+01 4.383996149163092437e-01 3.122688839423252460e+01 1.641329389447396281e+01 -1.198389323770655324e+01 1.641329389447396281e+01 -1.717158692385483221e+01
4.982748341859922192e+01 2.072962512056834239e+00 7.395807714621709827e+00 2.072962512056834239e+00 2.184159863489550446e+01 -1.243442163133627254e+01 7.395807714621709827e+00 -1.243442163133627254e+01 -1.900517421599679846e+00
4.594587938607578081e+01 -1.126647961946485133e+01 2.633453840370462817e+00 -1.126647961946485133e+01 3.621313839406978019e+01 -9.715961014232789239e+00 2.633453840370462817e+00 -9.715961014232789239e+00 1.420638185883429294e+01
3.833600104679777587e+01 9.798317184822172621e+00 6.950394337805610334e+00 9.798317184822172621e+00 4.646181850348231279e+01 -4.214521635493045260e+00 6.950394337805610334e+00 -4.214521635493045260e+00 -4.696867315715886448e+00
5.286818891068985238e+01 -1.727343643258906170e+01 1.104828232568779001e+01 -1.727343643258906170e+01 3.663021164020914711e+01 7.778733653722153640e+00 1.104828232568779001e+01 7.778733653722153640e+00 3.728392668332520543e+01
-5.111036831580205053e+00 -2.954249754907753545e+00 4.536461979744428774e+00 -2.954249754907753545e+00 -8.835841234423751356e-01 9.121593206098689066e+00 4.536461979744428774e+00 9.121593206098689066e+00 -4.736364521416172479e+00
4.008166200447155347e+01 9.228072254270452968e-01 -2.486301095015146956e+00 9.228072254270452968e-01 -1.425672806787410529e+01 -1.255737704190175386e+01 -2.486301095015146956e+00 -1.255737704190175386e+01 -4.160219495992923555e+01
3.739047299447361894e+01 -1.981916821356908187e+01 -3.203110588626339350e+00 -1.981916821356908187e+01 2.333095567536622283e+01 3.056532345657847038e+00 -3.203110588626339350e+00 3.056532345657847038e+00 -1.733413947445612946e+00
2.539750848874474443e+01 -9.808147870128694379e+00 4.281604792179841468e+00 -9.808147870128694379e+00 3.239201063803924541e+01 -2.242656182487762884e+00 4.281604792179841468e+00 -2.242656182487762884e+00 7.618143603490720395e+00
-7.276553220058733729e+00 7.199354972539032893e+00 -1.668333513089673037e+00 7.199354972539032893e+00 7.974717028244067585e+00 -1.461513252833513832e+01 -1.668333513089673037e+00 -1.461513252833513832e+01 1.662970765977136622e+01
8.894456759875962959e+00 -4.715579004066514202e+00 -8.322718295529243804e+00 -4.715579004066514202e+00 2.375737676925695752e+01 5.237956592379950926e+00 -8.322718295529243804e+00 5.237956592379950926e+00 4.832077390187873789e+01
1.940928102334947170e+01 -1.858554482277655406e+00 -1.560624587643503958e+01 -1.858554482277655406e+00 -1.583324238254971261e+00 2.127664919821192768e+00 -1.560624587643503958e+01 2.127664919821192768e+00 7.401986460297603543e+00
1.183519252846592096e+01 -6.578600628298914899e+00 6.391634349759011791e+00 -6.578600628298914899e+00 8.803433804895089976e-01 -1.034153513082097930e+01 6.391634349759011791e+00 -1.034153513082097930e+01 -4.941217571705789169e+01
5.469056047494628103e+01 1.449578388702444975e+01 -1.802235712974957593e+01 1.449578388702444975e+01 5.221143371519806919e+01 -1.183267190221773291e+00 -1.802235712974957593e+01 -1.183267190221773291e+00 4.706193480036714050e+01
6.862253520096589732e+00 -9.186338749451467223e+00 -1.127460843917502054e+01 -9.186338749451467223e+00 -4.329322210133091708e+00 -1.710480419840392230e+01 -1.127460843917502054e+01 -1.710480419840392230e+01 -4.796467200313821877e+01
-1.935122876028202654e+01 -4.786335246064264304e+00 8.260380136726498179e+00 -4.786335246064264304e+00 -2.585715571366732490e+01 5.426205520789019410e+00 8.260380136726498179e+00 5.426205520789019410e+00 -4.960134804450223811e+01
2.808204979401412515e+01 -2.280923529914351988e+01 -8.443123973090781442e-01 -2.280923529914351988e+01 1.774148892415321299e+01 2.316045191275918569e+01 -8.443123973090781442e-01 2.316045191275918569e+01 -2.335136541191673487e+01
2.013354108851493862e+01 -4.733074902070378620e+00 -3.906862814218883706e+00 -4.733074902070378620e+00 9.237704643266154036e+00 -2.288832617496338884e+01 -3.906862814218883706e+00 -2.288832617496338884e+01 -3.237445267108288505e+01
2.966845031260424292e+01 7.457285311203539990e+00 -3.618748519283159215e+00 7.457285311203539990e+00 5.878807115715768106e+01 -2.223496036549072130e+00 -3.618748519283159215e+00 -2.223496036549072130e+00 -1.045745301238345348e+01
1.317618004112720875e+01 1.528066849098646252e+01 -3.206287112568957376e+00 1.528066849098646252e+01 -1.566791223821193846e+01 -7.987868734952839667e+00 -3.206287112568957376e+00 -7.987868734952839667e+00 -3.885846191286332640e+01
-6.992325197755793198e+00 -1.011270890475538753e+00 -1.987039393071850313e+01 -1.011270890475538753e+00 -2.523966668297362048e+01 1.015857391035905977e+01 -1.987039393071850313e+01 1.015857391035905977e+01 -2.697667814580606205e+01
1.288164586543136991e+01 -5.774688917815942624e+00 7.407336166540614997e+00 -5.774688917815942624e+00 2.621899559085953868e+01 2.496738013164900849e+00 7.407336166540614997e+00 2.496738013164900849e+00 1.539258482132113492e+01
-2.008063760170557188e+01 -2.150381098575405048e+01 1.261123355470239460e+01 -2.150381098575405048e+01 -6.226554937475754059e+01 1.456078778672196705e+00 1.261123355470239460e+01 1.456078778672196705e+00 -4.067706425082341326e+01
3.818419269570344277e+00 -1.782711210712726091e+00 5.791781250054281571e+00 -1.782711210712726091e+00 -1.526462334991225411e+01 1.225971105677004580e+01 5.791781250054281571e+00 1.225971105677004580e+01 -1.288478404605320904e+01
-2.255672420763156438e+01 1.160557521187032393e+01 1.529921855033604672e+01 1.160557521187032393e+01 -1.331564689792697465e+01 -6.200941288000254126e+00 1.529921855033604672e+01 -6.200941288000254126e+00 -4.541208298142009170e+01
1.419250801116193372e+01 4.064660046741098043e+00 -7.637916838380723661e+00 4.064660046741098043e+00 -2.622069155751597602e+00 1.617186868837870506e+01 -7.637916838380723661e+00 1.617186868837870506e+01 -3.428357814283115346e+01
7.628681411784272726e+00 -8.165957313469814238e+00 -1.049761768914820426e+00 -8.165957313469814238e+00 7.014036317285555100e+00 -1.239988160491176039e+01 -1.049761768914820426e+00 -1.239988160491176039e+01 -4.170914885185592880e+01
-2.921145241683294103e+01 -1.831270189261008241e+01 -1.449768510058423310e+01 -1.831270189261008241e+01 -4.079068479128546443e+01 1.163543165472077145e+00 -1.449768510058423310e+01 1.163543165472077145e+00 -6.182732639396471797e+01
6.635907788379618033e+00 -7.967207674616670232e+00 3.458875889377856172e+00 -7.967207674616670232e+00 5.041787923280615757e+00 1.593029848574818530e+01 3.458875889377856172e+00 1.593029848574818530e+01 4.014733039052408081e+00
-6.583736811554768309e+00 6.790504931046278614e+00 -2.055623198412966257e+00 6.790504931046278614e+00 -3.651826121886386556e+00 -5.439344541767931140e+00 -2.055623198412966257e+00 -5.439344541767931140e+00 -5.567774580758451997e+00
4.255474801308311683e+00 8.811097865942494778e+00 2.801058547263939325e+00 8.811097865942494778e+00 1.327214891035770883e+01 -1.705474882676311310e+00 2.801058547263939325e+00 -1.705474882676311310e+00 -1.835890245559166578e+00
2.577709241171282883e+01 1.378660668972784542e+01 1.053647843903016801e+00 1.378660668972784542e+01 5.587778969982930732e+01 2.651653297942013765e+00 1.053647843903016801e+00 2.651653297942013765e+00 2.294312046064824173e+01
5.327738518018043123e+01 -2.092294977868939654e+01 -1.698966223537128428e+01 -2.092294977868939654e+01 4.095278672101228779e+01 6.687335137819689024e+00 -1.698966223537128428e+01 6.687335137819689024e+00 2.611555953588690926e+01
-8.546013217714707011e+00 9.015290348135943432e+00 -9.910099704522000508e+00 9.015290348135943432e+00 1.174480321529907778e+00 -3.725502900061408162e-01 -9.910099704522000508e+00 -3.725502900061408162e-01 -3.968171844036716323e+01
-1.844600115556394115e+01 -2.528721007982509761e+01 -2.532882244454593135e+01 -2.528721007982509761e+01 5.450486586817562262e+00 -9.035718751123534176e+00 -2.532882244454593135e+01 -9.035718751123534176e+00 -2.922299761294791853e+00
2.448396896197971628e+01 1.958816177948057913e+01 -1.833622640885491251e+01 1.958816177948057913e+01 2.010368767150314184e+01 8.255169439222060035e+00 -1.833622640885491251e+01 8.255169439222060035e+00 -3.151359410461743948e+00