9.632760000000000211e-01 -5.184910000000000352e-01 2.742930000000000090e-01 1.497811999999999921e+00 -9.097690000000000499e-01 -2.690159999999999774e-01 1.676759999999999917e-01 2.750412999999999997e+00 -5.933840000000000225e-01 1.911300999999999917e+00 1.211627999999999927e+00 4.546049999999999813e-01 -1.540972000000000008e+00 -1.572219000000000033e+00 6.001830000000000220e-01 -9.936460000000000292e-01 3.932499999999999885e-02 -4.211659999999999848e-01 2.963636000000000159e+00 -2.288658999999999999e+00 -1.107677999999999940e+00 -1.503489000000000075e+00 -1.882155999999999940e+00 4.526040000000000063e-01 -3.736439999999999761e-01 7.082359999999999767e-01 -1.726296000000000053e+00 -1.879601999999999995e+00 -5.418420000000000458e-01 1.200015999999999972e+00 -2.128073999999999799e+00 -2.717311000000000032e+00 7.207010000000000360e-01 1.318677000000000099e+00 -3.592586999999999975e+00 -7.834000000000000685e-03 1.405780999999999947e+00 -7.468679999999999763e-01 3.245257000000000058e+00 1.176244000000000067e+00 1.569059999999999899e-01 1.292049000000000003e+00 1.212250000000000050e+00 2.801953999999999834e+00 -1.598189000000000082e+00 -8.078340000000000520e-01 2.636493999999999893e+00 -1.884087000000000067e+00 2.519042999999999921e+00 -3.084192999999999962e+00 9.097870000000000124e-01 1.604502000000000095e+00 1.971511000000000013e+00 2.173067000000000082e+00 3.470823000000000214e+00 -4.041248000000000395e+00 -2.610539000000000165e+00 -8.646920000000000162e-01 -2.300984999999999836e+00 1.393432000000000004e+00 -1.689122999999999930e+00 1.164830000000000032e+00 -1.282102000000000075e+00 -4.946943000000000090e+00 -2.132022000000000084e+00 1.159590000000000065e-01 -4.137920000000000265e+00 3.707984000000000169e+00 -2.520289000000000001e+00 -2.209836999999999829e+00 2.496179000000000148e+00 -2.557656999999999847e+00 -8.146849999999999925e-01 -1.453441999999999901e+00 2.810623000000000093e+00 1.505600999999999967e+00 4.961490000000000067e-01 -1.767301999999999929e+00 -2.464869999999999894e+00 1.052953000000000028e+00 1.268912999999999958e+00 1.212782000000000027e+00 2.754506000000000121e+00 -6.823339999999999961e-01 -1.330821000000000032e+00 2.236110000000000042e-01 -1.374284000000000061e+00 8.257780000000000120e-01 1.930490999999999957e+00 3.249079999999999746e-01 -1.381761999999999935e+00 -2.627060999999999868e+00 -4.619779999999999998e-01 8.347569999999999713e-01 3.740870000000000029e-01 -6.966139999999999555e-01 2.247460999999999931e+00 1.995835000000000026e+00 -1.094098000000000015e+00 -6.896000000000000220e-03 -9.855909999999999949e-01 5.837339999999999751e-01 6.790209999999999857e-01 1.308451999999999948e+00 -1.490923999999999916e+00 2.592938999999999883e+00 2.358242999999999867e+00 8.076899999999999358e-02 -7.402699999999999558e-02 -1.485740000000000116e-01 9.501640000000000086e-01 -2.466435999999999851e+00 1.894196999999999909e+00 -3.507759000000000071e+00 -1.982909000000000033e+00 2.681032000000000082e+00 -5.594010000000000371e-01 7.175489999999999924e-01 -2.355659999999999976e-01 2.572699999999999987e-01 -8.026720000000000521e-01 -5.999090000000000256e-01 4.405740000000000212e-01 1.285257000000000094e+00 -9.674030000000000129e-01 -5.664179999999999771e-01 -1.318427999999999933e+00 1.341285000000000061e+00 1.089425000000000088e+00 -8.747660000000000435e-01 -5.952299999999999952e-02 1.018224000000000018e+00 1.263050000000000006e+00 -9.745840000000000058e-01 4.916800000000000059e-01 3.907827000000000162e+00 4.214775000000000382e+00 -2.141145999999999994e+00 -7.149699999999999944e-01 -1.517284999999999995e+00 1.257031999999999927e+00 1.026555000000000106e+00 -1.362797000000000036e+00 9.222609999999999975e-01 3.373902999999999874e+00 -3.086386000000000074e+00 1.749902000000000069e+00 1.870570000000000010e-01 -1.599434999999999940e+00 4.879569999999999741e-01 -1.141021000000000063e+00 2.036992000000000136e+00 3.878856999999999999e+00 3.348930000000000184e+00 -6.375539999999999541e-01 2.416355999999999948e+00 9.150460000000000260e-01 2.446771000000000029e+00 -4.416189999999999838e-01 -9.087140000000000217e-01 1.185297999999999963e+00 -5.562209999999999654e-01 -7.316730000000000178e-01 -7.359660000000000091e-01 -1.374259999999999926e-01 -7.845619999999999816e-01 1.211581999999999937e+00 7.435319999999999707e-01 -1.386683000000000110e+00 1.585309000000000079e+00 -1.169372999999999996e+00 -1.553209999999999869e-01 -2.378641000000000005e+00 -9.338269999999999627e-01 -1.869490000000000041e-01 1.409497000000000000e+00 -4.638500000000000262e-02 -1.056000000000000081e-03 2.213999999999999996e-02 1.559032999999999891e+00 8.807810000000000361e-01 -7.341440000000000188e-01 -1.905380000000000129e-01 -1.441697000000000006e+00 7.418169999999999487e-01 3.451830000000000176e-01 4.422769999999999757e-01 -3.453089999999999771e-01 4.147549999999999848e-01 -1.726491999999999916e+00 1.978866000000000014e+00 6.937729999999999730e-01 1.264764999999999917e+00 1.590275000000000105e+00 -8.557670000000000554e-01 3.552449999999999775e-01 1.864210000000000034e-01 -6.374689999999999523e-01 -2.011610000000000065e-01 1.748572000000000015e+00 1.025495000000000045e+00 1.096775000000000055e+00 -1.943961000000000050e+00 2.472097000000000211e+00 9.188720000000000221e-01 -7.083799999999999819e-02 -1.963235000000000063e+00 1.956132999999999900e+00 7.872890000000000166e-01 -5.098460000000000214e-01 6.302199999999999469e-02 -6.057679999999999731e-01 -8.274660000000000348e-01 -9.677850000000000064e-01 -1.122289999999999954e-01 4.664139999999999953e-01 7.707969999999999544e-01 -3.297515999999999892e+00 -6.037190000000000056e-01 1.720971000000000029e+00 -5.762400000000000161e-02 1.093544000000000072e+00 2.506619999999999959e-01 8.203000000000000222e-03 -5.767300000000000204e-02 -4.506330000000000058e-01 3.906629999999999825e-01 7.278179999999999650e-01 -2.473670000000000035e-01 4.238879999999999870e-01 4.032220000000000248e-01 -1.924180000000000001e+00 2.087490999999999985e+00 -1.146649999999999947e+00 -3.786769999999999858e-01 -8.273200000000000554e-01 -6.819469999999999699e-01 -9.949919999999999876e-01 -6.598070000000000324e-01 1.972858999999999918e+00 -2.447913999999999923e+00 -1.028205000000000036e+00 1.169669000000000070e+00 9.972259999999999458e-01 -1.210806000000000049e+00 -2.213537999999999784e+00 8.326379999999999892e-01 4.911499999999999894e-02 1.368606999999999907e+00 1.836651999999999951e+00 -1.545395999999999992e+00 -1.144892000000000021e+00 -5.499260000000000259e-01 -1.377107999999999999e+00 1.677248000000000072e+00 -1.116258999999999890e+00 1.489249000000000045e+00 -7.413899999999999657e-02 1.601846000000000103e+00 1.615833999999999993e+00 -3.118099999999999761e-01 4.890169999999999795e-01 5.989900000000000085e-02 -5.634689999999999976e-01 -2.311008999999999869e+00 -9.748029999999999751e-01 -2.118828999999999851e+00 7.766690000000000538e-01 8.300189999999999513e-01 3.629220000000000224e-01 -3.100325000000000220e+00 -7.410259999999999625e-01 2.176889999999999936e-01 -9.952609999999999513e-01 -2.459181000000000061e+00 -4.362730000000000219e-01 4.968779999999999863e-01 -1.671300999999999926e+00 -1.255778999999999979e+00 -1.427087999999999912e+00 -7.958549999999999791e-01 2.239220000000000099e-01
-5.870419999999999527e-01 -2.996494999999999909e+00 6.230800000000000227e-02 -6.575940000000000119e-01 5.273510000000000142e-01 -7.034040000000000292e-01 7.230750000000000233e-01 -2.397936000000000067e+00 5.615019999999999456e-01 -5.269770000000000287e-01 -1.452415999999999929e+00 6.051999999999999741e-02 -1.802116999999999969e+00 2.125106000000000162e+00 -5.097300000000000164e-01 1.465003999999999973e+00 4.489159999999999817e-01 1.405095999999999901e+00 -2.016563000000000105e+00 -5.248850000000000460e-01 -1.294599999999999917e-01 4.468227999999999867e+00 6.102579999999999671e-01 -5.094060000000000255e-01 1.256505999999999901e+00 -2.151339999999999919e-01 -1.874022000000000077e+00 -1.717368000000000006e+00 -8.026999999999999413e-02 6.056460000000000177e-01 -1.175220000000000015e-01 -7.049630000000000063e-01 -1.108780000000000043e-01 -1.671130000000000115e-01 4.221659999999999857e-01 -3.340940000000000021e-01 6.489679999999999893e-01 4.222040000000000237e-01 3.745229999999999948e-01 -4.408446999999999782e+00 -1.990718999999999905e+00 1.238696000000000019e+00 -8.903200000000000003e-01 -3.214969999999999772e-01 -2.154824000000000073e+00 -4.435742000000000296e+00 -3.689540000000000042e-01 -4.623470000000000080e-01 -5.189200000000000063e-02 1.350999999999999979e-01 -1.918436999999999948e+00 7.477120000000000433e-01 6.311080000000000023e-01 -1.358081000000000094e+00 -8.393260000000000165e-01 -1.789654999999999996e+00 -6.764699999999999880e-02 2.084689000000000014e+00 -6.001229999999999620e-01 -6.612759999999999749e-01 4.680309999999999748e-01 8.104080000000000172e-01 -5.488730000000000553e-01 -8.657350000000000323e-01 1.986059999999999937e+00 2.101907000000000192e+00 4.829790000000000028e+00 1.861234999999999973e+00 2.339289999999999980e-01 -2.352724999999999955e+00 -8.067140000000000422e-01 1.962215000000000042e+00 1.071489999999999942e-01 -2.280654000000000181e+00 5.065950000000000175e-01 -6.764339999999999797e-01 7.042779999999999596e-01 1.538062999999999958e+00 6.733930000000000193e-01 -1.492250000000000076e+00 1.914757000000000042e+00 1.099078999999999917e+00 2.130869999999999986e-01 1.651729999999999920e+00 6.056470000000000464e-01 1.962781000000000109e+00 2.718173999999999868e+00 1.458082000000000100e+00 6.912949999999999928e-01 -8.114419999999999966e-01 1.927264000000000088e+00 -1.326205999999999996e+00 2.372079999999999966e+00 8.430299999999999461e-01 -2.103000000000000008e-02 -3.250776999999999806e+00 -3.630539999999999878e-01 7.063679999999999959e-01 -2.781712000000000184e+00 2.058371000000000173e+00 7.994259999999999700e-01 -1.708855000000000013e+00 -8.915680000000000271e-01 -8.592300000000000493e-01 3.445790000000000242e-01 -1.730005999999999933e+00 -2.405882000000000076e+00 -1.338697000000000026e+00 -1.467721000000000053e+00 7.800399999999999556e-01 -9.385860000000000314e-01 -1.863988999999999896e+00 -1.584260000000000002e+00 3.706589999999999829e+00 3.126764000000000099e+00 -8.005449999999999511e-01 2.157600000000000073e-01 7.928570000000000340e-01 4.493650000000000144e-01 1.093977999999999895e+00 -1.068578999999999946e+00 -1.246960999999999986e+00 1.016199000000000074e+00 -7.869530000000000136e-01 1.483935000000000004e+00 6.720600000000000185e-02 1.775698999999999916e+00 3.125649000000000122e+00 -2.159301999999999833e+00 2.648449999999999971e-01 -8.555739999999999457e-01 -7.833280000000000243e-01 7.735849999999999671e-01 -1.078309999999999963e-01 4.528260000000000063e-01 -8.606110000000000149e-01 9.780800000000000605e-02 -5.739950000000000330e-01 -5.822410000000000085e-01 9.328599999999999393e-02 -1.063825000000000021e+00 -3.416620000000000212e-01 7.714000000000000370e-03 -7.240459999999999674e-01 7.723299999999999610e-01 -5.997580000000000133e-01 2.459883000000000042e+00 -2.184929999999999928e-01 2.276640000000000053e-01 5.503470000000000306e-01 -1.226606000000000085e+00 -3.677429999999999866e-01 -1.502496999999999971e+00 -1.509390999999999927e+00 1.004307000000000061e+00 9.278690000000000548e-01 4.677120000000000166e-01 3.137829999999999786e-01 2.009749999999999870e-01 5.001300000000000190e-02 -6.815769999999999884e-01 -2.609933999999999976e+00 1.552349999999999897e+00 9.972450000000000481e-01 -1.244097999999999926e+00 -9.248629999999999907e-01 -6.900899999999999812e-01 3.806299999999999961e-02 9.480709999999999971e-01 1.647205999999999948e+00 -2.777435999999999794e+00 -2.742089999999999805e-01 3.209420000000000051e-01 9.350979999999999848e-01 -2.353861999999999899e+00 9.188340000000000396e-01 -1.299628000000000005e+00 -9.726719999999999811e-01 -7.968180000000000263e-01 -1.766570000000000085e-01 -5.986500000000000155e-02 -2.459159999999999957e-01 3.855399999999999799e-02 2.769994000000000067e+00 1.499546000000000046e+00 1.311106000000000105e+00 4.314459999999999962e-01 -2.075785999999999909e+00 -1.975524999999999975e+00 3.980164999999999953e+00 1.238502999999999910e+00 8.687660000000000382e-01 1.217019999999999991e+00 -2.069590999999999958e+00 -4.630500000000000171e-01 1.019960000000000033e-01 5.493660000000000210e-01 -3.156030000000000224e-01 4.003090000000000259e-01 1.355167999999999928e+00 6.927510000000000057e-01 3.376609999999999889e-01 6.878319999999999990e-01 1.090576999999999908e+00 -2.284546000000000188e+00 -2.435064999999999813e+00 -5.184229999999999672e-01 2.773499999999999854e-01 2.522780000000000022e-01 -2.514890000000000181e-01 7.368479999999999475e-01 1.380857999999999919e+00 1.172428999999999943e+00 2.600709999999999966e-01 1.364365999999999968e+00 -4.223109999999999919e-01 -1.578926000000000052e+00 -4.126200000000000007e-02 1.561032999999999893e+00 -1.821757999999999988e+00 1.905494999999999939e+00 -1.993168999999999969e+00 -3.447064999999999824e+00 1.027681999999999984e+00 1.081666000000000016e+00 -2.035187000000000079e+00 2.292810999999999932e+00 -1.025552999999999937e+00 1.000305999999999917e+00 -1.547979999999999912e-01 -4.955500000000000183e-02 8.002449999999999841e-01 -4.860799999999999843e-02 7.614509999999999890e-01 2.163580000000000059e+00 -6.577969999999999651e-01 5.178749999999999742e-01 1.872000000000000053e-02 -9.489830000000000210e-01 1.491550000000000098e-01 -4.991490000000000093e-01 -1.183089999999999975e-01 2.145493000000000094e+00 7.301689999999999570e-01 5.386199999999999877e-01 -1.838932000000000011e+00 -1.461011999999999977e+00 2.893180000000000196e-01 5.079669999999999463e-01 -6.635180000000000522e-01 -9.189979999999999816e-01 6.652310000000000167e-01 -1.937290000000000123e-01 -1.477068999999999965e+00 -1.902841000000000005e+00 -2.447620000000000129e+00 1.046357999999999899e+00 9.641500000000000070e-02 -2.527930000000000010e+00 -4.080880000000000063e-01 6.534929999999999906e-01 3.291339999999999821e-01 9.399600000000000177e-01 2.981355999999999895e+00 2.036748999999999921e+00 -6.279329999999999634e-01 1.312624000000000013e+00 -7.445659999999999501e-01 1.609223000000000070e+00 1.837399999999999867e-01 1.645855000000000068e+00 1.112619999999999998e-01 -6.440709999999999491e-01 7.880059999999999842e-01 -1.887949000000000099e+00 -2.214639999999999942e-01 1.463243000000000071e+00 -2.983310000000000128e-01 -1.817423000000000011e+00 1.837151999999999896e+00 1.670830000000000093e-01 1.417907000000000028e+00
-1.217219999999999969e-01 -5.712709999999999733e-01 1.936769999999999881e-01 1.329217000000000093e+00 5.727670000000000261e-01 5.290460000000000163e-01 -1.575998999999999928e+00 1.104630999999999919e+00 2.203768999999999867e+00 6.660129999999999661e-01 -1.535952999999999902e+00 -2.535189999999999944e-01 -1.045222000000000095e+00 5.745999999999999996e-01 -8.396529999999999827e-01 1.215324999999999989e+00 5.577309999999999768e-01 -2.232021000000000033e+00 -4.234872000000000192e+00 -2.383509999999999796e+00 -5.148770000000000291e-01 -2.906469999999999887e-01 4.161207000000000100e+00 -3.043540000000000134e+00 1.064637999999999973e+00 1.915250000000000008e-01 9.589550000000000018e-01 3.602279999999999927e-01 1.709144999999999914e+00 -1.144730000000000053e-01 4.552599999999999980e-01 -3.184645999999999866e+00 3.735619999999999941e+00 4.901260000000000061e-01 -1.339882000000000017e+00 -8.587339999999999973e-01 3.634959999999999858e-01 -2.349247000000000085e+00 -3.619402000000000008e+00 -4.579929999999999835e-01 -4.713629999999999765e-01 2.461629999999999985e+00 8.357900000000000329e-01 -2.184989999999999988e-01 8.830200000000000549e-02 -1.738906999999999980e+00 -2.115626999999999924e+00 2.149779999999999802e+00 1.223459999999999964e-01 -1.163918000000000008e+00 -7.813430000000000097e-01 4.792049999999999921e-01 3.935831999999999997e+00 -1.015063999999999966e+00 1.450282000000000071e+00 -1.740229000000000026e+00 -4.622300000000000020e-02 -3.139159999999999728e-01 1.529984000000000011e+00 8.417630000000000390e-01 2.719457999999999931e+00 2.779659999999999798e+00 -1.464037999999999951e+00 1.677690000000000015e-01 3.976080000000000170e-01 -1.844211000000000045e+00 -2.551760999999999946e+00 2.349514000000000102e+00 5.218390000000000528e-01 -2.085198999999999803e+00 1.365580999999999934e+00 7.677079999999999460e-01 1.346931000000000100e+00 6.603940000000000365e-01 6.650960000000000205e-01 -1.964272999999999936e+00 1.388211000000000084e+00 1.832615000000000105e+00 -3.555321999999999871e+00 4.172296000000000227e+00 -2.079145000000000021e+00 -7.646119999999999584e-01 1.592413999999999996e+00 -7.455799999999999927e-02 1.428453999999999890e+00 -8.913649999999999629e-01 5.216158000000000072e+00 -1.491522000000000014e+00 2.578974000000000100e+00 -3.271837000000000106e+00 6.120600000000000485e-01 -2.054979999999999862e-01 6.511059999999999626e-01 4.506640000000000090e-01 3.186019999999999963e-01 -5.267000000000000154e-02 1.513627000000000056e+00 -3.096401999999999877e+00 -1.103409000000000084e+00 1.009444999999999926e+00 -1.315139000000000058e+00 -5.421519999999999673e-01 -3.970110000000000028e-01 8.438900000000000290e-01 -1.822257000000000016e+00 2.309616000000000113e+00 -1.723006999999999955e+00 -1.029679000000000011e+00 3.757057999999999787e+00 2.040138999999999925e+00 -4.456249999999999933e-01 -1.613142999999999994e+00 -1.309805000000000108e+00 1.105026000000000064e+00 1.645612000000000075e+00 1.965365999999999946e+00 -3.855359999999999898e-01 8.822820000000000107e-01 1.117890999999999968e+00 9.292000000000000259e-02 -1.578791999999999973e+00 3.740330000000000044e-01 -2.005602000000000107e+00 -1.076030000000000042e-01 4.783810000000000007e-01 7.040189999999999504e-01 9.633589999999999653e-01 1.962096000000000062e+00 -5.336099999999999871e-02 3.406560000000000143e-01 2.714329999999999909e+00 -1.102740999999999971e+00 -1.437475999999999976e+00 4.135969999999999924e-01 1.956514000000000086e+00 -3.387049999999999783e-01 1.157480000000000037e-01 -5.879490000000000549e-01 2.470590000000000008e-01 -3.327249999999999930e-01 2.047329999999999983e-01 1.169079999999999980e-01 -8.593509999999999760e-01 -5.696320000000000272e-01 9.803770000000000540e-01 4.202569999999999917e-01 -1.026577999999999991e+00 -8.519229999999999858e-01 -4.444910000000000250e-01 -1.501462000000000074e+00 1.210129999999999956e-01 2.567330000000000112e+00 3.534768999999999828e+00 -1.109509999999999996e+00 -1.172204000000000024e+00 1.752693999999999974e+00 4.887790000000000190e-01 8.365010000000000501e-01 1.455786999999999942e+00 -1.605674000000000046e+00 -1.090427000000000035e+00 2.796536000000000133e+00 1.788656000000000024e+00 3.075829000000000146e+00 -2.261998000000000175e+00 7.188219999999999610e-01 6.378239999999999466e-01 -2.179313000000000056e+00 -7.328999999999999578e-03 -2.346500999999999948e+00 -1.827517999999999976e+00 -1.805542999999999898e+00 -1.998107999999999995e+00 -2.558917999999999804e+00 8.443299999999999417e-02 -1.051036000000000081e+00 -4.197290000000000187e-01 -1.239181000000000088e+00 4.787999999999999895e-02 1.345534000000000008e+00 -1.517611999999999961e+00 -1.662835000000000063e+00 -4.969939999999999913e-01 8.580200000000000327e-02 -5.098880000000000079e-01 -6.314109999999999445e-01 -5.372799999999999798e-01 -1.505973000000000006e+00 -4.685130000000000128e-01 1.592378000000000071e+00 -2.430966999999999878e+00 1.252479999999999982e-01 6.215509999999999646e-01 -8.498630000000000351e-01 2.177499999999999991e-01 9.129460000000000353e-01 1.259762000000000048e+00 4.539579999999999727e-01 1.838484000000000007e+00 -2.316101000000000187e+00 -1.730191999999999952e+00 -3.977600000000000025e-01 1.950749999999999984e+00 1.708784000000000081e+00 9.021000000000000130e-01 2.577942000000000178e+00 8.852100000000000524e-01 3.049290000000000056e-01 -1.957651000000000030e+00 -1.126258999999999899e+00 -2.149001000000000161e+00 1.632109999999999950e+00 1.350613999999999981e+00 -1.334750000000000103e+00 2.700756999999999852e+00 4.867449999999999832e-01 -1.426867000000000107e+00 -8.737359999999999571e-01 -3.059100000000000152e-01 -1.144520999999999900e+00 -2.771140000000000270e-01 7.422149999999999581e-01 6.786590000000000122e-01 2.644652999999999921e+00 8.493669999999999831e-01 -1.218701999999999952e+00 -2.002241999999999855e+00 8.040739999999999554e-01 -1.325434000000000001e+00 -1.164226999999999901e+00 -1.026980999999999922e+00 1.931014999999999926e+00 1.764370000000000105e-01 -2.248599999999999904e-02 -1.217327999999999966e+00 -1.212388999999999939e+00 2.942719999999999780e-01 1.214960999999999958e+00 -7.536659999999999471e-01 1.262013000000000051e+00 1.538561000000000067e+00 -1.686900999999999984e+00 2.667861999999999956e+00 5.028190000000000159e-01 -2.556408999999999931e+00 2.975127000000000077e+00 1.684130000000000071e-01 -2.472957000000000072e+00 -1.280040999999999984e+00 -1.268944999999999990e+00 3.637449999999999850e-01 1.562972999999999946e+00 -2.493774000000000157e+00 9.979090000000000460e-01 -2.870547999999999877e+00 3.280100000000000238e-01 4.722649999999999904e-01 -4.392320000000000113e-01 -1.065773999999999999e+00 -1.702100000000000002e-01 -1.870890000000000053e-01 1.441243999999999970e+00 -1.166400000000000076e-02 1.389405000000000001e+00 3.444599999999999884e+00 -4.519051000000000151e+00 3.411849999999999827e+00 1.610880000000000090e-01 -4.039059999999999873e-01 -7.821409999999999751e-01 1.283733000000000013e+00 2.428093000000000057e+00 -2.314271999999999885e+00 -1.096740000000000048e+00 2.905670000000000197e-01 -9.195980000000000265e-01 -1.576619999999999966e-01 -2.373197999999999919e+00 5.698980000000000157e-01 1.159748000000000001e+00 -2.425607999999999986e+00 -1.392527000000000070e+00
-1.779512999999999900e+00 3.785769999999999968e-01 8.638379999999999947e-01 -3.355670000000000042e-01 1.842475000000000085e+00 -2.294960000000000055e-01 -2.428989000000000065e+00 2.605279999999999818e-01 -7.179489999999999483e-01 -2.258030999999999899e+00 -4.160920000000000174e-01 3.693759999999999821e-01 8.315219999999999834e-01 1.292132999999999976e+00 2.920510000000000050e-01 3.963619999999999921e-01 -1.666740000000000110e+00 -2.501075999999999855e+00 2.607552999999999788e+00 -4.265431000000000417e+00 -2.332946999999999882e+00 8.872320000000000206e-01 -3.705967999999999929e+00 -9.366149999999999753e-01 1.223838999999999899e+00 8.852729999999999766e-01 6.792660000000000364e-01 -3.967581000000000024e+00 3.851367999999999903e+00 2.723869999999999791e+00 3.015229999999999855e-01 -2.195869000000000071e+00 1.757826000000000111e+00 -2.564109000000000194e+00 -1.603760000000000074e+00 -4.310829999999999940e-01 -2.775980000000000114e-01 -1.128417000000000003e+00 -1.390820000000000112e-01 -1.116913999999999962e+00 2.852500000000000036e-01 -4.361729999999999774e-01 2.257444000000000006e+00 1.884284999999999988e+00 1.331271000000000093e+00 -4.304529999999999745e-01 -3.529662000000000077e+00 1.179993000000000070e+00 -8.603929999999999634e-01 -3.250460000000000016e-01 2.704337000000000213e+00 4.781099999999999933e-02 -5.906730000000000036e-01 -4.885798999999999559e+00 -4.654200000000000004e-01 1.267820000000000058e-01 -1.212839000000000000e+00 2.215678000000000036e+00 1.202730000000000077e+00 2.454362999999999850e+00 5.200979999999999492e-01 2.766252999999999851e+00 2.981730000000000214e-01 -2.285267000000000159e+00 -1.168357000000000090e+00 -4.133370000000000100e-01 4.227547999999999639e+00 -1.510461999999999971e+00 -2.965348000000000095e+00 9.787900000000000489e-01 1.597671000000000063e+00 -2.912574999999999914e+00 1.397203999999999890e+00 3.827409999999999979e+00 3.177693999999999797e+00 -1.860872000000000082e+00 -6.072429999999999772e-01 -2.833823999999999899e+00 2.793306999999999984e+00 1.348924000000000012e+00 1.159054000000000029e+00 5.025269999999999460e-01 -7.152000000000000371e-03 -8.676620000000000443e-01 1.399950000000000083e-01 1.683159999999999934e-01 1.136382999999999921e+00 -2.177681999999999896e+00 -2.433460000000000067e-01 2.358204999999999885e+00 -1.657200000000000006e+00 -1.008229999999999960e-01 -1.038713999999999915e+00 1.582260999999999918e+00 -1.006089000000000011e+00 3.469909999999999939e-01 -8.956950000000000189e-01 -1.416946000000000039e+00 1.244149999999999978e-01 -5.353930000000000078e-01 1.742653000000000008e+00 -8.835560000000000080e-01 -2.845746999999999804e+00 -3.018259999999999832e-01 -2.863806999999999992e+00 -1.443210000000000048e-01 -1.816570000000000129e-01 2.416659999999999919e-01 2.732955000000000023e+00 -1.538003000000000009e+00 3.698810000000000153e-01 -4.883970000000000256e-01 1.424774999999999903e+00 3.392580000000000040e-01 -6.826710000000000278e-01 -1.126019999999999938e-01 -4.696759999999999824e-01 -1.121701999999999977e+00 9.557050000000000267e-01 -1.993087000000000053e+00 1.154249999999999998e-01 3.463109999999999800e-01 -2.695818000000000048e+00 -1.553077000000000041e+00 1.629356000000000027e+00 3.651098999999999872e+00 3.711099999999999954e-01 -9.821299999999999475e-02 5.552900000000000197e-02 -9.933200000000000363e-02 2.878260000000000263e-01 -1.345442999999999945e+00 -2.513250000000000206e-01 -9.242879999999999985e-01 8.308320000000000149e-01 1.936757000000000062e+00 2.450970000000000093e-01 -1.089981000000000089e+00 8.039979999999999905e-01 1.173748000000000014e+00 1.249401999999999902e+00 1.438468999999999998e+00 -7.344300000000000272e-01 -1.085517000000000065e+00 -3.217400000000000260e-01 -7.810540000000000260e-01 1.162857000000000030e+00 -3.559648999999999841e+00 2.561820000000000208e-01 4.841650000000000120e-01 -3.380609999999999893e+00 1.236806000000000072e+00 2.112661999999999818e+00 1.359016999999999920e+00 1.490404999999999980e+00 -5.501740000000000519e-01 -1.651779999999999915e-01 -9.286489999999999467e-01 -1.484104000000000090e+00 -2.409419999999999895e-01 -1.609847999999999946e+00 2.085249999999999881e-01 1.331061999999999967e+00 -2.600680000000000214e-01 1.881715999999999944e+00 1.345350000000000046e+00 2.078656000000000059e+00 -8.476650000000000018e-01 -2.792318999999999996e+00 -5.488110000000000488e-01 -3.735209999999999919e-01 2.355964999999999865e+00 -2.613577999999999957e+00 1.271492000000000067e+00 8.155829999999999469e-01 1.882131999999999916e+00 -4.080369999999999830e-01 2.753180000000000072e-01 8.305059999999999665e-01 5.541850000000000387e-01 6.561400000000000565e-02 7.932019999999999627e-01 1.103780000000000039e-01 -3.362220000000000208e-01 -3.695099999999999774e-02 -1.095714999999999995e+00 1.444824000000000108e+00 -2.586240000000000205e-01 6.605779999999999985e-01 7.133979999999999766e-01 -7.873999999999999888e-01 1.396174000000000026e+00 -1.740621999999999892e+00 1.143669999999999964e-01 2.258323999999999998e+00 -1.335693000000000019e+00 -8.266500000000000237e-02 1.687724999999999920e+00 -1.136516000000000082e+00 -2.564190000000000080e-01 -2.529179999999999762e-01 -1.175600999999999896e+00 -6.048210000000000530e-01 -1.725567999999999991e+00 4.493300000000000072e-02 -2.608110000000000150e-01 -2.518599999999999728e-01 -1.031916999999999973e+00 2.073401000000000050e+00 1.379075999999999969e+00 2.684500000000000219e-01 -3.569359999999999755e-01 1.452558999999999934e+00 1.281168000000000085e+00 -3.445349999999999913e+00 -3.717963999999999825e+00 -1.373247000000000106e+00 1.394427000000000083e+00 -5.606210000000000360e-01 6.031020000000000270e-01 8.327799999999999647e-01 2.564083000000000112e+00 4.262300000000000116e-02 1.669888999999999957e+00 -9.933809999999999585e-01 8.078009999999999913e-01 -9.462789999999999813e-01 1.278242000000000100e+00 -3.941339999999999844e-01 1.437691000000000052e+00 -6.056289999999999729e-01 -1.655332000000000026e+00 -1.673561000000000076e+00 -4.457240000000000091e-01 6.495750000000000135e-01 1.404279999999999973e+00 4.859399999999999831e-01 8.791200000000000403e-02 -2.728380000000000249e-01 6.551930000000000254e-01 -1.544793000000000083e+00 9.944800000000000306e-01 9.993699999999999806e-02 1.101800000000000002e-01 1.127212000000000103e+00 -1.165699999999999931e-01 -2.807100000000000151e-01 4.712049999999999850e-01 7.918100000000000138e-01 2.372469000000000161e+00 -8.072279999999999456e-01 -5.775550000000000406e-01 -2.735509999999999886e-01 -1.067779999999999951e+00 1.409559999999999924e+00 7.888049999999999784e-01 1.397758000000000056e+00 -8.876410000000000133e-01 8.548529999999999740e-01 -4.185189999999999744e-01 -4.583420000000000272e-01 4.616699999999999970e-02 1.556146000000000029e+00 1.167167999999999983e+00 5.301999999999999769e-02 -2.012145999999999990e+00 1.811771000000000020e+00 1.809577999999999909e+00 -6.619580000000000464e-01 -1.012100999999999917e+00 -3.292499999999999871e-01 -5.737020000000000453e-01 5.238450000000000051e-01 1.198166000000000064e+00 1.353739999999999943e-01 -5.284550000000000081e-01 2.341508999999999840e+00 -9.314740000000000242e-01 -9.653009999999999646e-01 2.775424999999999809e+00 -1.123780999999999919e+00 -1.962488000000000010e+00