-9.262194517200000519e+02
-9.245471250699999928e+02
-9.252559256399999867e+02
-9.204566536300000053e+02
-9.251747991199999888e+02
-9.251812377799999467e+02
-9.231970813799999860e+02
-9.239344110499999942e+02
-9.247571663500000341e+02
-9.259714801699999498e+02
-9.240546804199999542e+02
-9.243100207899999532e+02
-9.246387177599999632e+02
-9.231343078899999455e+02
-9.241818110000000388e+02
-9.206423016899999539e+02
-9.208916665100000500e+02
-9.245623177700000497e+02
-9.243510813399999506e+02
-9.246788309400000117e+02
-9.220377060700000129e+02
-9.255346224800000527e+02
-9.247296516400000428e+02
-9.244020337099999551e+02
-9.250304753399999527e+02
-9.253661687699999447e+02
-9.249981319700000313e+02
-9.247227014000000054e+02
-9.243179410999999845e+02
-9.248987368299999616e+02
-9.243093178200000466e+02
-9.254429982100000416e+02
-9.248435715199999549e+02
-9.239296757800000250e+02
-9.223104512300000124e+02
-9.244116998199999671e+02
-9.259070302799999581e+02
-9.228475570399999697e+02
-9.247645230599999877e+02
-9.250027025099999491e+02
-9.255444126500000266e+02
-9.223118763200000103e+02
-9.248197212699999454e+02
-9.246150844600000482e+02
-9.252188720999999987e+02
-9.249266908600000079e+02
-9.231318329900000208e+02
-9.233975133500000538e+02
-9.247885367300000325e+02
-9.249491751499999737e+02
