1.020307423000000036e+01 0.000000000000000000e+00 0.000000000000000000e+00 -6.795014500000000346e-02 1.020286681199999990e+01 0.000000000000000000e+00 -1.898050000000000030e-04 2.203849999999999982e-04 1.050881996200000046e+01
1.018950090999999958e+01 0.000000000000000000e+00 0.000000000000000000e+00 -6.785974899999999699e-02 1.018929376800000064e+01 0.000000000000000000e+00 -1.895529999999999925e-04 2.200919999999999927e-04 1.049483990400000089e+01
1.014652461000000017e+01 0.000000000000000000e+00 0.000000000000000000e+00 -6.757353700000000296e-02 1.014631834200000071e+01 0.000000000000000000e+00 -1.887530000000000002e-04 2.191639999999999908e-04 1.045057577400000071e+01
1.021093792499999964e+01 0.000000000000000000e+00 0.000000000000000000e+00 -6.800251499999999949e-02 1.021073034800000023e+01 0.000000000000000000e+00 -1.899509999999999979e-04 2.205549999999999915e-04 1.051691930199999980e+01
1.017872075800000076e+01 0.000000000000000000e+00 0.000000000000000000e+00 -6.778795599999999644e-02 1.017851383500000040e+01 0.000000000000000000e+00 -1.893519999999999990e-04 2.198590000000000104e-04 1.048373671300000076e+01
1.016399195900000052e+01 0.000000000000000000e+00 0.000000000000000000e+00 -6.768986600000000131e-02 1.016378533600000011e+01 0.000000000000000000e+00 -1.890779999999999946e-04 2.195409999999999907e-04 1.046856655100000033e+01
1.019771155499999971e+01 0.000000000000000000e+00 0.000000000000000000e+00 -6.791442999999999786e-02 1.019750424599999938e+01 0.000000000000000000e+00 -1.897050000000000006e-04 2.202689999999999878e-04 1.050329658899999963e+01
1.011211245199999986e+01 0.000000000000000000e+00 0.000000000000000000e+00 -6.734436000000000588e-02 1.011190688299999962e+01 0.000000000000000000e+00 -1.881130000000000063e-04 2.184200000000000128e-04 1.041513242000000083e+01
1.028069505799999916e+01 0.000000000000000000e+00 0.000000000000000000e+00 -6.846708199999999855e-02 1.028048606299999967e+01 0.000000000000000000e+00 -1.912489999999999980e-04 2.220620000000000027e-04 1.058876678000000027e+01
1.018733231200000056e+01 0.000000000000000000e+00 0.000000000000000000e+00 -6.784530699999999359e-02 1.018712521399999993e+01 0.000000000000000000e+00 -1.895119999999999975e-04 2.200450000000000116e-04 1.049260632100000024e+01
1.014375796500000071e+01 0.000000000000000000e+00 0.000000000000000000e+00 -6.755511200000000049e-02 1.014355175300000056e+01 0.000000000000000000e+00 -1.887020000000000104e-04 2.191039999999999947e-04 1.044772622400000017e+01
1.014475052799999943e+01 0.000000000000000000e+00 0.000000000000000000e+00 -6.756172200000000461e-02 1.014454429499999932e+01 0.000000000000000000e+00 -1.887199999999999956e-04 2.191250000000000001e-04 1.044874852999999959e+01
1.020955255600000022e+01 0.000000000000000000e+00 0.000000000000000000e+00 -6.799328899999999842e-02 1.020934500699999958e+01 0.000000000000000000e+00 -1.899260000000000108e-04 2.205250000000000070e-04 1.051549241799999912e+01
1.025844960899999947e+01 0.000000000000000000e+00 0.000000000000000000e+00 -6.831893199999999888e-02 1.025824106499999999e+01 0.000000000000000000e+00 -1.908350000000000118e-04 2.215809999999999915e-04 1.056585472199999920e+01
1.017952004800000054e+01 0.000000000000000000e+00 0.000000000000000000e+00 -6.779327899999999796e-02 1.017931310900000064e+01 0.000000000000000000e+00 -1.893669999999999913e-04 2.198760000000000070e-04 1.048455995399999985e+01
1.023551266700000006e+01 0.000000000000000000e+00 0.000000000000000000e+00 -6.816617699999999447e-02 1.023530459000000015e+01 0.000000000000000000e+00 -1.904089999999999993e-04 2.210860000000000039e-04 1.054223045100000000e+01
1.008877924599999965e+01 0.000000000000000000e+00 0.000000000000000000e+00 -6.718896600000000274e-02 1.008857415199999963e+01 0.000000000000000000e+00 -1.876790000000000034e-04 2.179159999999999919e-04 1.039110001000000061e+01
1.020771746700000016e+01 0.000000000000000000e+00 0.000000000000000000e+00 -6.798106700000000613e-02 1.020750995500000080e+01 0.000000000000000000e+00 -1.898910000000000018e-04 2.204850000000000006e-04 1.051360233900000019e+01
1.018181859999999972e+01 0.000000000000000000e+00 0.000000000000000000e+00 -6.780858700000000350e-02 1.018161161399999948e+01 0.000000000000000000e+00 -1.894099999999999907e-04 2.199260000000000082e-04 1.048692738599999963e+01
1.019545504999999963e+01 0.000000000000000000e+00 0.000000000000000000e+00 -6.789940299999999707e-02 1.019524778699999956e+01 0.000000000000000000e+00 -1.896629999999999898e-04 2.202209999999999910e-04 1.050097246500000026e+01
1.017403940400000018e+01 0.000000000000000000e+00 0.000000000000000000e+00 -6.775677900000000309e-02 1.017383257700000065e+01 0.000000000000000000e+00 -1.892650000000000116e-04 2.197579999999999922e-04 1.047891507799999999e+01
1.011669312299999923e+01 0.000000000000000000e+00 0.000000000000000000e+00 -6.737486600000000547e-02 1.011648746100000018e+01 0.000000000000000000e+00 -1.881979999999999894e-04 2.185189999999999995e-04 1.041985035599999954e+01
1.010375065899999925e+01 0.000000000000000000e+00 0.000000000000000000e+00 -6.728867199999999382e-02 1.010354526000000064e+01 0.000000000000000000e+00 -1.879569999999999895e-04 2.182399999999999976e-04 1.040652005699999982e+01
1.017599990499999940e+01 0.000000000000000000e+00 0.000000000000000000e+00 -6.776983599999999996e-02 1.017579303700000004e+01 0.000000000000000000e+00 -1.893010000000000092e-04 2.198000000000000030e-04 1.048093432699999994e+01
1.017758964100000085e+01 0.000000000000000000e+00 0.000000000000000000e+00 -6.778042300000000631e-02 1.017738274100000062e+01 0.000000000000000000e+00 -1.893309999999999937e-04 2.198350000000000120e-04 1.048257170099999946e+01
1.013835918900000088e+01 0.000000000000000000e+00 0.000000000000000000e+00 -6.751915699999999632e-02 1.013815308600000087e+01 0.000000000000000000e+00 -1.886009999999999922e-04 2.189869999999999957e-04 1.044216566699999937e+01
1.011211318199999987e+01 0.000000000000000000e+00 0.000000000000000000e+00 -6.734436500000000325e-02 1.011190761299999963e+01 0.000000000000000000e+00 -1.881130000000000063e-04 2.184200000000000128e-04 1.041513317200000088e+01
1.016756969400000088e+01 0.000000000000000000e+00 0.000000000000000000e+00 -6.771369200000000588e-02 1.016736299799999976e+01 0.000000000000000000e+00 -1.891449999999999924e-04 2.196180000000000105e-04 1.047225149600000016e+01
1.009897872500000027e+01 0.000000000000000000e+00 0.000000000000000000e+00 -6.725689199999999868e-02 1.009877342300000080e+01 0.000000000000000000e+00 -1.878690000000000134e-04 2.181370000000000021e-04 1.040160512699999984e+01
1.024673515699999982e+01 0.000000000000000000e+00 0.000000000000000000e+00 -6.824091599999999869e-02 1.024652685200000057e+01 0.000000000000000000e+00 -1.906169999999999946e-04 2.213279999999999924e-04 1.055378923499999999e+01
1.018803752100000004e+01 0.000000000000000000e+00 0.000000000000000000e+00 -6.785000300000000595e-02 1.018783040799999995e+01 0.000000000000000000e+00 -1.895250000000000125e-04 2.200600000000000039e-04 1.049333266200000025e+01
1.019329085999999940e+01 0.000000000000000000e+00 0.000000000000000000e+00 -6.788499000000000616e-02 1.019308364099999942e+01 0.000000000000000000e+00 -1.896230000000000105e-04 2.201740000000000099e-04 1.049874342400000060e+01
1.013458601900000033e+01 0.000000000000000000e+00 0.000000000000000000e+00 -6.749402899999999705e-02 1.013437999299999959e+01 0.000000000000000000e+00 -1.885310000000000013e-04 2.189059999999999943e-04 1.043827943099999978e+01
1.020911969800000030e+01 0.000000000000000000e+00 0.000000000000000000e+00 -6.799040600000000323e-02 1.020891215800000040e+01 0.000000000000000000e+00 -1.899179999999999933e-04 2.205160000000000009e-04 1.051504659000000075e+01
1.016686023399999961e+01 0.000000000000000000e+00 0.000000000000000000e+00 -6.770896799999999438e-02 1.016665355199999965e+01 0.000000000000000000e+00 -1.891309999999999888e-04 2.196029999999999911e-04 1.047152077600000020e+01
1.020528205099999930e+01 0.000000000000000000e+00 0.000000000000000000e+00 -6.796484799999999438e-02 1.020507458800000045e+01 0.000000000000000000e+00 -1.898459999999999980e-04 2.204329999999999950e-04 1.051109394300000055e+01
1.014209882799999995e+01 0.000000000000000000e+00 0.000000000000000000e+00 -6.754406200000000193e-02 1.014189265000000084e+01 0.000000000000000000e+00 -1.886710000000000101e-04 2.190679999999999971e-04 1.044601736899999977e+01
1.007428211000000040e+01 0.000000000000000000e+00 0.000000000000000000e+00 -6.709241800000000089e-02 1.007407730999999984e+01 0.000000000000000000e+00 -1.874090000000000077e-04 2.176029999999999967e-04 1.037616845199999993e+01
1.012059503100000057e+01 0.000000000000000000e+00 0.000000000000000000e+00 -6.740085199999999721e-02 1.012038929000000032e+01 0.000000000000000000e+00 -1.882710000000000004e-04 2.186040000000000097e-04 1.042386918799999940e+01
1.023333068200000007e+01 0.000000000000000000e+00 0.000000000000000000e+00 -6.815164599999999628e-02 1.023312264900000024e+01 0.000000000000000000e+00 -1.903680000000000042e-04 2.210389999999999957e-04 1.053998308000000073e+01
1.016492595299999913e+01 0.000000000000000000e+00 0.000000000000000000e+00 -6.769608600000000254e-02 1.016471931100000070e+01 0.000000000000000000e+00 -1.890949999999999912e-04 2.195610000000000075e-04 1.046952853300000008e+01
1.020381389699999986e+01 0.000000000000000000e+00 0.000000000000000000e+00 -6.795507100000000578e-02 1.020360646399999993e+01 0.000000000000000000e+00 -1.898190000000000066e-04 2.204010000000000062e-04 1.050958179400000070e+01
1.020386659699999932e+01 0.000000000000000000e+00 0.000000000000000000e+00 -6.795542200000000144e-02 1.020365916299999931e+01 0.000000000000000000e+00 -1.898199999999999952e-04 2.204019999999999948e-04 1.050963607399999944e+01
1.024781973199999996e+01 0.000000000000000000e+00 0.000000000000000000e+00 -6.824813899999999933e-02 1.024761140400000059e+01 0.000000000000000000e+00 -1.906370000000000113e-04 2.213519999999999908e-04 1.055490630999999979e+01
1.021199922599999965e+01 0.000000000000000000e+00 0.000000000000000000e+00 -6.800958299999999845e-02 1.021179162700000020e+01 0.000000000000000000e+00 -1.899709999999999875e-04 2.205780000000000013e-04 1.051801240500000034e+01
1.018974246299999997e+01 0.000000000000000000e+00 0.000000000000000000e+00 -6.786135799999999663e-02 1.018953531600000062e+01 0.000000000000000000e+00 -1.895570000000000013e-04 2.200969999999999901e-04 1.049508869499999975e+01
1.005753597500000041e+01 0.000000000000000000e+00 0.000000000000000000e+00 -6.698089299999999968e-02 1.005733151499999956e+01 0.000000000000000000e+00 -1.870979999999999898e-04 2.172420000000000048e-04 1.035892050200000014e+01
1.015254974099999963e+01 0.000000000000000000e+00 0.000000000000000000e+00 -6.761366300000000440e-02 1.015234335000000065e+01 0.000000000000000000e+00 -1.888650000000000018e-04 2.192940000000000048e-04 1.045678145499999978e+01
1.011603745999999937e+01 0.000000000000000000e+00 0.000000000000000000e+00 -6.737049999999999983e-02 1.011583181199999970e+01 0.000000000000000000e+00 -1.881859999999999902e-04 2.185049999999999959e-04 1.041917504499999936e+01
1.018614517399999997e+01 0.000000000000000000e+00 0.000000000000000000e+00 -6.783740100000000550e-02 1.018593809999999955e+01 0.000000000000000000e+00 -1.894900000000000035e-04 2.200190000000000088e-04 1.049138360899999967e+01
