2.758059999999999956e+00 1.009501999999999988e+01 2.742319999999999869e+00 2.607800000000000118e+00 9.690000000000000002e-02 8.138960000000000861e+00 2.795129999999999892e+00 4.887109999999999843e+00 2.745709999999999873e+00 2.461609999999999854e+00 5.241850000000000342e+00 7.902470000000000105e+00 5.555999999999999828e-02 2.543639999999999901e+00 2.541809999999999903e+00 1.009063000000000088e+01 2.792739999999999778e+00 7.893220000000000347e+00 6.008999999999999758e-02 7.778279999999999639e+00 2.385330000000000172e+00 -7.693999999999999451e-02 7.621710000000000207e+00 7.809890000000000221e+00 7.688850000000000406e+00 2.604699999999999793e+00 5.185670000000000002e+00 7.557909999999999684e+00 2.884819999999999940e+00 1.030667000000000044e+01 7.778120000000000367e+00 7.673659999999999926e+00 5.105419999999999625e+00 7.706050000000000288e+00 7.691950000000000287e+00 1.037716999999999956e+01 4.972889999999999588e+00 1.017253000000000007e+01 2.624299999999999966e-01 5.115029999999999966e+00 1.013302000000000014e+01 5.201579999999999870e+00 4.994430000000000369e+00 5.109340000000000437e+00 1.036687000000000047e+01 5.023749999999999716e+00 5.225859999999999950e+00 5.442109999999999559e+00 5.295270000000000366e+00 2.532210000000000072e+00 2.221119999999999983e+00 4.980959999999999610e+00 2.392640000000000100e+00 7.754050000000000331e+00 5.218239999999999768e+00 7.643379999999999619e+00 2.424440000000000150e+00 5.095030000000000392e+00 7.612820000000000142e+00 7.783150000000000013e+00 7.752309999999999590e+00 1.112500000000000017e-01 2.590860000000000163e+00 7.627369999999999983e+00 1.018532000000000082e+01 8.103799999999999670e+00 7.782339999999999591e+00 5.194549999999999557e+00 2.755900000000000016e+00 7.489899999999999558e+00 4.939739999999999576e+00 7.702740000000000364e+00 1.890400000000000136e-01 2.580000000000000071e-01 1.049596999999999980e+01 4.919999999999999894e-03 1.012551999999999985e+01 5.331889999999999574e+00 1.911499999999999866e-01 5.328459999999999752e+00 2.059100000000000097e-01 1.698699999999999932e-01 5.262299999999999756e+00 5.298879999999999590e+00 2.674430000000000085e+00 2.355999999999999872e+00 4.984130000000000393e+00 2.529209999999999958e+00 2.703409999999999869e+00 1.050206999999999979e+01 2.736810000000000187e+00 7.565089999999999648e+00 5.058970000000000411e+00 2.751809999999999867e+00 7.801849999999999952e+00 1.052356999999999942e+01 8.908450000000000202e+00 3.953479999999999883e+00 8.314000000000000279e-01 8.755240000000000578e+00 3.902159999999999851e+00 6.334270000000000067e+00 8.784720000000000084e+00 8.903750000000000497e+00 1.120190000000000019e+00 8.991880000000000095e+00 8.809659999999999158e+00 6.477829999999999977e+00 4.293590000000000018e+00 1.073059999999999903e+00 3.854610000000000092e+00 3.741890000000000160e+00 1.529330000000000078e+00 9.355100000000000193e+00 4.135589999999999655e+00 6.065389999999999837e+00 3.820160000000000000e+00 3.813509999999999955e+00 6.502760000000000318e+00 9.428869999999999862e+00 3.972539999999999960e+00 3.450060000000000127e+00 3.634040000000000159e+00 3.629999999999999893e+00 3.877549999999999830e+00 9.008900000000000574e+00 3.835030000000000161e+00 8.740780000000000882e+00 3.728959999999999830e+00 4.212710000000000399e+00 9.051450000000000884e+00 8.969509999999999650e+00 9.085079999999999600e+00 1.264170000000000016e+00 1.775749999999999940e+00 8.903520000000000323e+00 1.301919999999999966e+00 7.062949999999999839e+00 8.961430000000000007e+00 6.380700000000000038e+00 1.435759999999999925e+00 8.831699999999999662e+00 6.297430000000000305e+00 6.835779999999999745e+00 9.108010000000000161e+00 3.749530000000000030e+00 3.588410000000000100e+00 8.735110000000000596e+00 3.956850000000000200e+00 8.850519999999999499e+00 8.933389999999999276e+00 8.794230000000000658e+00 3.613129999999999953e+00 9.170429999999999637e+00 9.096880000000000521e+00 8.892269999999999897e+00 3.540169999999999817e+00 1.137979999999999992e+00 1.200059999999999905e+00 3.796720000000000095e+00 1.021810000000000107e+00 6.790490000000000137e+00 3.856469999999999843e+00 6.238039999999999807e+00 1.317919999999999980e+00 3.704720000000000013e+00 6.309820000000000206e+00 6.696360000000000312e+00 1.684889999999999999e+00 1.526459999999999928e+00 3.370150000000000201e+00 1.086100000000000065e+00 1.276049999999999907e+00 8.711679999999999424e+00 1.787930000000000019e+00 6.626319999999999766e+00 3.505930000000000213e+00 1.488159999999999927e+00 6.775719999999999743e+00 9.003669999999999618e+00 6.471879999999999633e+00 1.417740000000000000e+00 1.024119999999999919e+00 6.290460000000000385e+00 1.489870000000000028e+00 6.085200000000000387e+00 6.421509999999999607e+00 6.525689999999999991e+00 9.797099999999999698e-01 6.226099999999999746e+00 6.566639999999999588e+00 6.047609999999999708e+00 6.733749999999999680e+00 1.832049999999999956e+00 3.389120000000000132e+00 6.486659999999999648e+00 1.618049999999999988e+00 8.728059999999999263e+00 6.857840000000000380e+00 6.829710000000000392e+00 3.436920000000000197e+00 6.505609999999999893e+00 6.569580000000000197e+00 8.664239999999999498e+00 6.378230000000000288e+00 4.005020000000000024e+00 1.358090000000000019e+00 5.949060000000000237e+00 3.979919999999999902e+00 6.980719999999999814e+00 5.977509999999999657e+00 9.353509999999999991e+00 1.694939999999999891e+00 6.378630000000000244e+00 9.027049999999999130e+00 6.957799999999999763e+00 9.233710000000000306e+00 1.406349999999999989e+00 4.213470000000000049e+00 8.983140000000000569e+00 1.513130000000000086e+00 9.813159999999999883e+00 9.299950000000000827e+00 6.509909999999999641e+00 4.089529999999999887e+00 9.076150000000000162e+00 6.547089999999999854e+00 9.524919999999999831e+00 6.742779999999999774e+00 4.444300000000000139e+00 4.353869999999999685e+00 6.113649999999999807e+00 3.924240000000000173e+00 9.210100000000000620e+00 6.560369999999999813e+00 9.177319999999999922e+00 4.183040000000000092e+00 6.596309999999999896e+00 9.119899999999999451e+00 9.716900000000000759e+00 1.010459999999999914e+00 1.732069999999999999e+00 7.678899999999999615e-01 1.102959999999999940e+00 1.488960000000000061e+00 5.981609999999999872e+00 1.053190000000000071e+00 7.125219999999999665e+00 7.064899999999999514e-01 1.324529999999999985e+00 6.770389999999999908e+00 6.270290000000000141e+00 1.536149999999999904e+00 4.047010000000000218e+00 4.368769999999999598e+00 1.148300000000000098e+00 4.142240000000000144e+00 9.430619999999999337e+00 1.474900000000000100e+00 8.956879999999999953e+00 4.376330000000000275e+00 1.887820000000000054e+00 9.520170000000000243e+00 1.000132999999999939e+01 1.340119999999999978e+00 4.150389999999999802e+00 1.769840000000000080e+00 8.597599999999999687e-01 4.248330000000000162e+00 7.063920000000000421e+00 1.083059999999999912e+00 9.442920000000000869e+00 1.840510000000000090e+00 1.298810000000000020e+00 9.043279999999999319e+00 7.026200000000000223e+00
2.758189999999999920e+00 1.243500000000000022e-01 2.653439999999999799e+00 2.710980000000000167e+00 1.025018999999999991e+01 7.907879999999999576e+00 2.916339999999999932e+00 5.054890000000000327e+00 2.587130000000000152e+00 2.919150000000000134e+00 5.192789999999999573e+00 7.773119999999999585e+00 2.462199999999999944e-01 2.788419999999999899e+00 2.439740000000000020e+00 1.160500000000000004e-01 2.410449999999999982e+00 7.733150000000000190e+00 6.862999999999999656e-02 7.654759999999999565e+00 2.466219999999999857e+00 1.022458999999999918e+01 7.554170000000000051e+00 7.571679999999999744e+00 7.801759999999999806e+00 2.725089999999999790e+00 5.475489999999999746e+00 7.719149999999999956e+00 2.722030000000000172e+00 1.046476999999999968e+01 7.746080000000000076e+00 7.802559999999999718e+00 5.138939999999999841e+00 7.870079999999999742e+00 7.896010000000000417e+00 1.033657000000000004e+01 5.140069999999999695e+00 1.244100000000000067e-01 1.063607000000000014e+01 5.172810000000000130e+00 1.393399999999999916e-01 5.188559999999999839e+00 5.293569999999999887e+00 5.332010000000000360e+00 2.254099999999999993e-01 5.409019999999999939e+00 5.298910000000000231e+00 5.313080000000000247e+00 5.339819999999999567e+00 2.709179999999999922e+00 2.625340000000000007e+00 5.040199999999999569e+00 2.591750000000000220e+00 7.836059999999999803e+00 5.283979999999999677e+00 7.897230000000000416e+00 2.653449999999999864e+00 5.288210000000000299e+00 7.966249999999999609e+00 7.674949999999999939e+00 7.848700000000000010e+00 2.471099999999999963e-01 2.736800000000000122e+00 7.630950000000000344e+00 1.583700000000000108e-01 8.154650000000000176e+00 7.928580000000000183e+00 5.123120000000000118e+00 2.513409999999999922e+00 7.593449999999999811e+00 5.002309999999999590e+00 8.115690000000000737e+00 1.390299999999999869e-01 1.097199999999999981e-01 2.599899999999999989e-01 1.730399999999999994e-01 1.028088999999999942e+01 5.078649999999999665e+00 1.368900000000000117e-01 5.325179999999999580e+00 1.051376999999999917e+01 9.335999999999999854e-02 5.183089999999999975e+00 5.223160000000000025e+00 2.602520000000000167e+00 2.828040000000000109e+00 5.326039999999999885e+00 2.582689999999999930e+00 2.795970000000000066e+00 1.042976999999999954e+01 2.764730000000000132e+00 7.719809999999999839e+00 5.332349999999999923e+00 2.973629999999999995e+00 7.855649999999999800e+00 1.038696999999999981e+01 8.909670000000000201e+00 3.836939999999999795e+00 1.123590000000000089e+00 9.195930000000000604e+00 3.808079999999999909e+00 6.499469999999999636e+00 9.006750000000000256e+00 8.999570000000000292e+00 1.004170000000000007e+00 9.104300000000000281e+00 8.992910000000000181e+00 6.337959999999999816e+00 3.376879999999999882e+00 1.336899999999999977e+00 4.118240000000000123e+00 3.987299999999999844e+00 1.381140000000000034e+00 9.700049999999999173e+00 3.988849999999999785e+00 6.469549999999999912e+00 4.321760000000000268e+00 4.243219999999999992e+00 6.532119999999999926e+00 9.693059999999999121e+00 4.117270000000000429e+00 3.990450000000000053e+00 3.780040000000000067e+00 3.979719999999999924e+00 3.926050000000000040e+00 8.842439999999999856e+00 4.094070000000000320e+00 9.129500000000000171e+00 3.859379999999999811e+00 4.072079999999999700e+00 9.140480000000000160e+00 8.860170000000000101e+00 9.315080000000000027e+00 1.265900000000000025e+00 1.419680000000000053e+00 8.743949999999999889e+00 1.424809999999999910e+00 6.934949999999999726e+00 8.835499999999999687e+00 6.559750000000000192e+00 1.364130000000000065e+00 8.761400000000000077e+00 6.509960000000000413e+00 6.633110000000000284e+00 9.359640000000000626e+00 4.103810000000000180e+00 3.632289999999999797e+00 8.932669999999999888e+00 3.730010000000000048e+00 9.212030000000000385e+00 9.073259999999999437e+00 9.193379999999999441e+00 3.654640000000000111e+00 8.991039999999999921e+00 8.882310000000000372e+00 8.743520000000000181e+00 4.241950000000000109e+00 1.268710000000000004e+00 1.686239999999999961e+00 3.832310000000000105e+00 1.383289999999999909e+00 6.637489999999999668e+00 4.021130000000000315e+00 6.538599999999999746e+00 1.651829999999999909e+00 4.178020000000000067e+00 6.551000000000000156e+00 6.936370000000000147e+00 1.107099999999999973e+00 1.345480000000000009e+00 3.552970000000000184e+00 1.474769999999999914e+00 1.372249999999999970e+00 8.977240000000000109e+00 1.337439999999999962e+00 6.201660000000000394e+00 3.309019999999999850e+00 1.887510000000000021e+00 6.676149999999999807e+00 8.640810000000000102e+00 6.275500000000000078e+00 1.293520000000000003e+00 3.863170000000000215e+00 6.498330000000000162e+00 1.665929999999999911e+00 8.788420000000000343e+00 6.549120000000000275e+00 6.586459999999999759e+00 3.675240000000000062e+00 6.685859999999999914e+00 6.673600000000000421e+00 8.555920000000000414e+00 6.319300000000000139e+00 4.005799999999999805e+00 1.565379999999999994e+00 6.459529999999999994e+00 3.591800000000000104e+00 6.864180000000000170e+00 6.272230000000000416e+00 9.554710000000000036e+00 1.620929999999999982e+00 6.355979999999999741e+00 9.912160000000000082e+00 6.956940000000000346e+00 8.889860000000000539e+00 1.429019999999999957e+00 4.278050000000000352e+00 8.893140000000000711e+00 1.185939999999999994e+00 9.644529999999999603e+00 9.185760000000000147e+00 6.523220000000000240e+00 4.086020000000000429e+00 9.025660000000000238e+00 6.484270000000000422e+00 9.346109999999999474e+00 6.834999999999999964e+00 4.048060000000000436e+00 4.260130000000000194e+00 6.550119999999999720e+00 4.276089999999999947e+00 9.582300000000000040e+00 6.583389999999999631e+00 9.086909999999999599e+00 4.323920000000000208e+00 6.587780000000000413e+00 9.381389999999999674e+00 9.664249999999999119e+00 1.771519999999999984e+00 1.406369999999999898e+00 1.010869999999999935e+00 1.184180000000000010e+00 1.387159999999999949e+00 6.298589999999999911e+00 1.252950000000000008e+00 6.732610000000000205e+00 5.737900000000000222e-01 1.227989999999999915e+00 6.536690000000000111e+00 6.227780000000000094e+00 1.332629999999999981e+00 3.825800000000000090e+00 4.113159999999999705e+00 1.561790000000000012e+00 4.248739999999999739e+00 9.496190000000000353e+00 1.462679999999999980e+00 8.990489999999999426e+00 4.407110000000000305e+00 1.745509999999999895e+00 9.371230000000000615e+00 9.873950000000000671e+00 1.425410000000000066e+00 4.016180000000000305e+00 1.359590000000000076e+00 1.476900000000000102e+00 3.972030000000000172e+00 6.750829999999999664e+00 1.290699999999999958e+00 9.030129999999999768e+00 1.706949999999999967e+00 1.479340000000000099e+00 8.976509999999999323e+00 7.171090000000000408e+00 3.856349999999999945e+00 4.005989999999999718e+00 9.726099999999999746e-01 4.027370000000000339e+00 4.264649999999999608e+00 6.332659999999999734e+00 3.967410000000000103e+00 8.955529999999999546e+00 1.077039999999999997e+00 4.103869999999999685e+00 9.046450000000000102e+00 6.469359999999999999e+00
2.611299999999999955e+00 1.228500000000000009e-01 3.003470000000000084e+00 2.709140000000000104e+00 1.026606999999999914e+01 8.094810000000000727e+00 2.692089999999999872e+00 5.240899999999999892e+00 2.600659999999999972e+00 2.691910000000000025e+00 5.214819999999999567e+00 8.030989999999999185e+00 -1.951999999999999916e-02 2.650799999999999823e+00 2.419900000000000162e+00 -2.312000000000000166e-02 2.701909999999999812e+00 7.683189999999999742e+00 1.679799999999999904e-01 7.708140000000000214e+00 2.236120000000000108e+00 2.929999999999999966e-02 7.596479999999999677e+00 7.757959999999999745e+00 7.928720000000000212e+00 2.653830000000000133e+00 5.060469999999999580e+00 7.749799999999999578e+00 2.717839999999999812e+00 1.034313000000000038e+01 7.799900000000000055e+00 7.561130000000000351e+00 5.133849999999999802e+00 7.860809999999999853e+00 7.725690000000000168e+00 1.045152999999999999e+01 5.312839999999999563e+00 7.263000000000000012e-02 1.237700000000000050e-01 5.280759999999999899e+00 5.247000000000000275e-02 5.301470000000000127e+00 5.280520000000000103e+00 5.254389999999999894e+00 1.557099999999999873e-01 4.953240000000000087e+00 5.096599999999999575e+00 5.242539999999999978e+00 5.156640000000000335e+00 2.521619999999999973e+00 2.389050000000000118e+00 5.107420000000000293e+00 2.695370000000000044e+00 7.885320000000000107e+00 5.151229999999999976e+00 7.817719999999999558e+00 2.459439999999999849e+00 5.023349999999999760e+00 7.823140000000000427e+00 7.647129999999999761e+00 7.830449999999999910e+00 3.187999999999999862e-02 2.969030000000000058e+00 7.683550000000000324e+00 6.078999999999999682e-02 8.124200000000000088e+00 7.558919999999999639e+00 5.186490000000000045e+00 2.851980000000000182e+00 7.570540000000000269e+00 5.295709999999999695e+00 8.164899999999999380e+00 -7.990999999999999492e-02 1.027171000000000056e+01 1.064413000000000054e+01 1.011595999999999940e+01 1.007862000000000080e+01 5.554520000000000124e+00 6.187000000000000138e-02 5.132360000000000255e+00 1.064131000000000071e+01 2.962000000000000188e-01 5.117090000000000138e+00 5.415519999999999889e+00 2.600960000000000161e+00 2.534600000000000186e+00 5.236259999999999692e+00 2.691129999999999800e+00 2.602129999999999832e+00 1.053322999999999965e+01 2.677830000000000155e+00 7.646609999999999907e+00 5.155829999999999913e+00 2.676730000000000054e+00 7.855070000000000441e+00 1.035192999999999941e+01 8.992599999999999483e+00 3.782840000000000202e+00 9.040399999999999547e-01 9.104929999999999524e+00 3.628330000000000055e+00 6.266949999999999577e+00 8.988429999999999254e+00 8.939189999999999969e+00 9.981799999999999562e-01 9.023930000000000007e+00 8.776630000000000820e+00 6.515109999999999957e+00 3.841650000000000009e+00 1.603460000000000107e+00 4.102319999999999744e+00 4.256879999999999775e+00 1.269549999999999956e+00 9.202500000000000568e+00 3.992150000000000087e+00 6.512249999999999872e+00 3.988929999999999865e+00 4.015220000000000233e+00 6.442759999999999820e+00 9.474159999999999471e+00 4.370490000000000208e+00 3.860059999999999825e+00 3.784269999999999801e+00 3.920889999999999986e+00 3.794869999999999965e+00 9.178699999999999193e+00 3.935020000000000184e+00 9.064899999999999736e+00 3.689929999999999932e+00 3.990880000000000205e+00 8.951299999999999812e+00 8.823700000000000543e+00 8.960940000000000794e+00 1.058340000000000058e+00 1.609380000000000033e+00 9.289170000000000371e+00 1.046620000000000106e+00 6.918309999999999960e+00 8.831599999999999895e+00 6.400229999999999642e+00 1.647820000000000062e+00 8.987320000000000420e+00 6.187990000000000101e+00 6.797719999999999985e+00 9.085140000000000882e+00 3.748250000000000082e+00 3.590129999999999821e+00 8.889950000000000685e+00 3.844910000000000050e+00 8.946839999999999904e+00 9.175340000000000273e+00 8.894610000000000127e+00 3.700419999999999821e+00 8.975749999999999673e+00 8.800369999999999138e+00 9.111090000000000799e+00 3.824500000000000011e+00 1.090619999999999923e+00 1.564720000000000111e+00 3.934860000000000024e+00 1.406970000000000054e+00 6.696200000000000152e+00 3.480719999999999814e+00 6.688419999999999810e+00 1.361390000000000100e+00 3.720349999999999824e+00 6.430670000000000108e+00 6.753650000000000375e+00 1.371869999999999923e+00 1.640800000000000036e+00 3.507089999999999819e+00 1.588600000000000012e+00 1.723670000000000035e+00 8.812139999999999418e+00 1.406979999999999897e+00 6.708309999999999995e+00 3.453139999999999876e+00 1.452309999999999990e+00 6.847470000000000390e+00 8.851150000000000517e+00 6.209039999999999893e+00 1.892200000000000104e+00 6.400299999999999878e-01 6.394420000000000215e+00 1.559819999999999984e+00 5.932199999999999918e+00 6.316569999999999574e+00 7.090589999999999726e+00 9.209300000000000264e-01 6.032379999999999853e+00 6.791059999999999874e+00 6.165409999999999613e+00 6.903200000000000003e+00 1.848610000000000086e+00 3.499480000000000146e+00 6.688060000000000116e+00 1.790620000000000100e+00 8.580809999999999604e+00 6.644630000000000258e+00 6.824930000000000163e+00 3.596130000000000049e+00 6.573269999999999946e+00 6.975069999999999659e+00 9.028510000000000701e+00 6.043470000000000120e+00 4.292189999999999728e+00 1.822770000000000001e+00 6.449790000000000134e+00 4.037049999999999805e+00 7.056639999999999802e+00 6.144929999999999559e+00 9.709619999999999251e+00 1.842400000000000038e+00 6.314549999999999663e+00 9.471629999999999328e+00 6.990689999999999849e+00 9.177519999999999456e+00 1.047530000000000072e+00 4.288149999999999906e+00 9.124219999999999331e+00 1.383580000000000032e+00 9.588580000000000325e+00 8.934390000000000498e+00 6.125099999999999767e+00 4.228250000000000064e+00 8.992340000000000444e+00 6.214800000000000324e+00 9.421549999999999869e+00 6.768709999999999560e+00 4.369510000000000005e+00 4.490260000000000140e+00 6.611679999999999779e+00 4.258070000000000022e+00 9.902449999999999974e+00 6.486110000000000042e+00 9.178800000000000736e+00 4.160219999999999807e+00 6.593700000000000117e+00 9.599990000000000023e+00 9.662240000000000606e+00 1.272629999999999928e+00 1.360090000000000021e+00 7.557899999999999618e-01 1.322289999999999965e+00 1.508680000000000021e+00 6.223559999999999981e+00 1.091390000000000082e+00 6.792690000000000339e+00 5.622500000000000275e-01 1.265940000000000065e+00 6.635480000000000267e+00 6.172789999999999999e+00 1.458909999999999929e+00 4.197219999999999729e+00 4.150009999999999977e+00 1.518699999999999939e+00 4.440400000000000347e+00 9.513279999999999959e+00 1.647450000000000081e+00 9.311809999999999476e+00 4.527199999999999669e+00 1.470229999999999926e+00 9.504590000000000316e+00 9.841150000000000730e+00 1.464199999999999946e+00 3.949790000000000134e+00 1.522480000000000055e+00 1.300019999999999953e+00 4.128140000000000143e+00 6.870300000000000296e+00 1.578230000000000022e+00 9.106500000000000483e+00 1.861869999999999914e+00 1.331760000000000055e+00 9.165969999999999729e+00 7.179529999999999745e+00
2.587759999999999838e+00 1.414900000000000047e-01 2.784299999999999997e+00 2.552119999999999944e+00 2.288100000000000134e-01 7.972059999999999924e+00 2.839620000000000033e+00 5.152569999999999872e+00 2.651969999999999938e+00 2.412520000000000220e+00 5.203610000000000291e+00 7.879069999999999574e+00 3.094999999999999973e-01 2.811980000000000146e+00 2.518359999999999932e+00 1.008332000000000050e+01 2.703860000000000152e+00 7.739180000000000170e+00 5.864099999999999868e-01 7.926449999999999996e+00 2.322940000000000005e+00 1.008301999999999943e+01 7.593119999999999870e+00 7.477920000000000122e+00 7.729460000000000441e+00 2.468560000000000088e+00 5.108080000000000176e+00 7.594319999999999737e+00 2.480259999999999909e+00 2.296300000000000008e-01 7.659589999999999677e+00 7.710090000000000110e+00 5.365160000000000373e+00 7.628370000000000317e+00 7.896700000000000053e+00 1.049625999999999948e+01 5.249769999999999825e+00 1.008708000000000027e+01 1.904599999999999904e-01 5.342590000000000394e+00 1.014157999999999937e+01 5.339739999999999931e+00 5.290119999999999933e+00 5.348709999999999631e+00 1.050325999999999915e+01 5.389529999999999710e+00 5.205440000000000289e+00 5.177950000000000053e+00 5.323380000000000223e+00 2.406639999999999890e+00 2.589609999999999967e+00 5.315809999999999924e+00 2.641239999999999810e+00 7.683869999999999756e+00 5.133560000000000123e+00 7.733819999999999695e+00 2.176540000000000141e+00 5.258820000000000050e+00 7.913610000000000255e+00 7.874480000000000146e+00 7.821550000000000225e+00 1.022927999999999926e+01 2.770030000000000214e+00 7.733979999999999855e+00 3.936000000000000054e-01 8.079729999999999634e+00 7.770629999999999704e+00 5.343790000000000262e+00 2.646059999999999857e+00 7.716529999999999667e+00 5.276259999999999728e+00 7.899289999999999701e+00 2.962699999999999778e-01 3.250199999999999756e-01 1.124700000000000005e-01 3.709500000000000020e-01 1.021637999999999913e+01 5.317409999999999748e+00 1.097800000000000026e-01 5.140349999999999753e+00 7.509000000000000397e-02 1.008281999999999989e+01 5.058379999999999654e+00 5.212469999999999715e+00 2.645160000000000178e+00 2.512459999999999916e+00 4.953739999999999810e+00 2.765610000000000124e+00 2.853590000000000071e+00 1.045885999999999960e+01 2.751329999999999831e+00 7.702670000000000350e+00 5.147879999999999789e+00 2.486969999999999903e+00 7.758829999999999671e+00 9.987099999999999866e+00 9.221959999999999269e+00 3.815780000000000172e+00 1.025889999999999969e+00 8.927519999999999456e+00 3.746560000000000112e+00 6.343300000000000161e+00 9.189470000000000027e+00 9.084400000000000475e+00 4.797000000000000153e-01 9.259280000000000399e+00 8.701109999999999900e+00 5.903509999999999813e+00 3.915999999999999925e+00 1.075990000000000002e+00 4.439409999999999634e+00 3.934989999999999988e+00 1.128370000000000095e+00 9.519569999999999865e+00 3.835300000000000153e+00 6.087270000000000181e+00 4.262419999999999654e+00 3.823799999999999866e+00 6.174280000000000435e+00 9.443780000000000285e+00 3.859640000000000182e+00 3.376829999999999998e+00 3.386690000000000200e+00 3.838719999999999910e+00 3.614459999999999784e+00 8.624340000000000117e+00 4.264870000000000161e+00 8.813140000000000640e+00 3.660899999999999821e+00 3.836120000000000196e+00 8.975390000000000867e+00 8.800440000000000040e+00 9.221349999999999270e+00 1.322470000000000034e+00 1.664730000000000043e+00 9.188480000000000203e+00 1.044010000000000105e+00 6.845270000000000188e+00 8.773580000000000823e+00 6.313119999999999621e+00 1.310140000000000082e+00 8.885590000000000543e+00 6.209839999999999804e+00 6.539360000000000284e+00 8.834789999999999921e+00 3.691669999999999785e+00 3.709049999999999958e+00 9.145730000000000359e+00 4.128300000000000303e+00 8.833990000000000009e+00 9.307069999999999510e+00 9.100519999999999499e+00 3.164930000000000021e+00 8.632210000000000605e+00 8.617330000000000823e+00 8.447950000000000514e+00 4.122209999999999930e+00 8.608999999999999986e-01 1.867169999999999996e+00 4.489519999999999733e+00 1.030950000000000033e+00 7.102159999999999584e+00 4.013899999999999579e+00 6.236379999999999590e+00 1.434949999999999948e+00 3.647810000000000219e+00 6.433489999999999931e+00 6.892129999999999868e+00 1.296210000000000084e+00 1.432800000000000074e+00 3.655199999999999783e+00 1.452630000000000088e+00 1.650060000000000082e+00 8.992150000000000531e+00 1.941149999999999931e+00 6.899469999999999992e+00 3.388349999999999973e+00 1.274669999999999970e+00 6.686429999999999652e+00 8.771200000000000330e+00 6.654399999999999871e+00 1.397229999999999972e+00 3.823679999999999968e+00 6.543389999999999596e+00 1.625960000000000072e+00 9.100989999999999469e+00 6.414240000000000386e+00 6.554840000000000444e+00 3.597240000000000215e+00 6.218519999999999825e+00 6.584259999999999557e+00 8.977639999999999176e+00 6.599450000000000038e+00 3.780860000000000110e+00 1.539770000000000083e+00 6.513580000000000148e+00 4.032560000000000144e+00 6.511560000000000237e+00 6.623680000000000234e+00 8.796699999999999520e+00 1.449259999999999993e+00 6.525859999999999772e+00 9.015930000000000888e+00 6.817120000000000068e+00 9.128140000000000143e+00 1.341620000000000035e+00 4.442759999999999820e+00 8.909499999999999531e+00 1.365029999999999966e+00 9.670320000000000249e+00 9.045949999999999491e+00 6.338919999999999888e+00 4.060419999999999696e+00 8.831129999999999924e+00 6.462609999999999744e+00 9.198180000000000689e+00 6.217719999999999914e+00 3.629430000000000156e+00 4.155870000000000175e+00 6.651299999999999990e+00 4.124600000000000044e+00 9.503759999999999764e+00 7.008300000000000196e+00 9.178179999999999339e+00 4.203649999999999665e+00 6.322379999999999889e+00 9.216480000000000672e+00 9.312929999999999708e+00 1.584859999999999935e+00 1.637659999999999894e+00 1.197540000000000049e+00 1.559879999999999933e+00 1.413159999999999972e+00 6.309849999999999959e+00 1.254080000000000084e+00 6.705429999999999779e+00 9.490499999999999492e-01 1.238869999999999916e+00 6.618920000000000137e+00 6.131639999999999979e+00 1.292869999999999964e+00 4.130080000000000418e+00 3.957570000000000032e+00 1.738469999999999960e+00 4.461039999999999672e+00 9.622279999999999944e+00 1.736259999999999915e+00 9.369849999999999568e+00 4.362079999999999735e+00 1.267239999999999922e+00 9.162319999999999354e+00 9.447240000000000748e+00 1.502310000000000034e+00 4.132290000000000241e+00 1.342740000000000045e+00 1.241139999999999910e+00 3.956739999999999924e+00 6.698479999999999990e+00 1.607110000000000039e+00 9.392400000000000304e+00 1.382649999999999935e+00 1.608729999999999993e+00 8.903140000000000498e+00 6.816379999999999661e+00 4.240490000000000315e+00 3.497539999999999871e+00 9.701699999999999768e-01 3.928929999999999811e+00 3.653599999999999959e+00 6.057750000000000412e+00 3.845880000000000187e+00 8.655770000000000408e+00 6.274499999999999522e-01 4.038750000000000284e+00 8.963520000000000820e+00 6.084529999999999994e+00