1.031284136300000043e+01 0.000000000000000000e+00 0.000000000000000000e+00 -2.388956399999999855e-02 1.072267474100000051e+01 0.000000000000000000e+00 2.141661499999999996e-02 -2.234241299999999847e-02 1.028326410000000024e+01
1.022330177599999956e+01 0.000000000000000000e+00 0.000000000000000000e+00 2.371653400000000092e-02 1.062951862799999958e+01 0.000000000000000000e+00 2.125337199999999954e-02 2.204706400000000163e-02 1.019399746899999926e+01
1.008122256499999914e+01 0.000000000000000000e+00 0.000000000000000000e+00 -2.335302200000000106e-02 1.048185138800000082e+01 0.000000000000000000e+00 2.093561400000000169e-02 -2.184061899999999862e-02 1.005230958599999980e+01
1.030422594600000075e+01 0.000000000000000000e+00 0.000000000000000000e+00 -2.386960600000000154e-02 1.071371694599999991e+01 0.000000000000000000e+00 2.139872400000000091e-02 -2.232374800000000090e-02 1.027467339200000040e+01
1.008804226900000067e+01 0.000000000000000000e+00 0.000000000000000000e+00 -2.336881999999999848e-02 1.048894210799999982e+01 0.000000000000000000e+00 2.094977599999999981e-02 -2.185539400000000021e-02 1.005910973099999950e+01
1.026626177900000059e+01 0.000000000000000000e+00 0.000000000000000000e+00 2.381619499999999834e-02 1.067418562099999946e+01 0.000000000000000000e+00 2.134268300000000118e-02 2.213970900000000047e-02 1.023683433100000073e+01
1.014024695500000028e+01 0.000000000000000000e+00 0.000000000000000000e+00 2.352385900000000113e-02 1.054316367200000037e+01 0.000000000000000000e+00 2.108070899999999956e-02 2.186795199999999953e-02 1.011118071799999996e+01
1.034701342199999985e+01 0.000000000000000000e+00 0.000000000000000000e+00 2.400352700000000020e-02 1.075814588299999919e+01 0.000000000000000000e+00 2.151055799999999907e-02 2.231385400000000102e-02 1.031735450500000084e+01
1.013311749500000047e+01 0.000000000000000000e+00 0.000000000000000000e+00 -2.347323600000000149e-02 1.053580862799999984e+01 0.000000000000000000e+00 2.104338399999999831e-02 -2.195304799999999931e-02 1.010405568100000018e+01
1.033204499500000040e+01 0.000000000000000000e+00 0.000000000000000000e+00 -2.393404899999999891e-02 1.074264152800000005e+01 0.000000000000000000e+00 2.145649499999999904e-02 -2.238401699999999911e-02 1.030241265699999964e+01
1.027782779900000065e+01 0.000000000000000000e+00 0.000000000000000000e+00 -2.380845499999999920e-02 1.068626973499999977e+01 0.000000000000000000e+00 2.134390300000000087e-02 -2.226655699999999932e-02 1.024835095599999946e+01
1.023324202799999938e+01 0.000000000000000000e+00 0.000000000000000000e+00 2.373959399999999928e-02 1.063985384999999972e+01 0.000000000000000000e+00 2.127403699999999911e-02 2.206850000000000131e-02 1.020390922800000055e+01
1.022519326199999945e+01 0.000000000000000000e+00 0.000000000000000000e+00 2.372092199999999845e-02 1.063148527100000074e+01 0.000000000000000000e+00 2.125730500000000064e-02 2.205114299999999875e-02 1.019588353400000003e+01
1.036007074199999956e+01 0.000000000000000000e+00 0.000000000000000000e+00 2.403381799999999846e-02 1.077172202799999923e+01 0.000000000000000000e+00 2.153770299999999832e-02 2.234201300000000084e-02 1.033037439800000001e+01
1.019443283000000022e+01 0.000000000000000000e+00 0.000000000000000000e+00 -2.361527199999999965e-02 1.059956063999999998e+01 0.000000000000000000e+00 2.117071699999999862e-02 -2.208588499999999955e-02 1.016519516299999992e+01
1.020283387499999961e+01 0.000000000000000000e+00 0.000000000000000000e+00 -2.363473300000000152e-02 1.060829554400000063e+01 0.000000000000000000e+00 2.118816299999999944e-02 -2.210408599999999849e-02 1.017357211400000061e+01
1.028606922700000048e+01 0.000000000000000000e+00 0.000000000000000000e+00 2.386214500000000127e-02 1.069478010699999970e+01 0.000000000000000000e+00 2.138386100000000054e-02 2.218242499999999867e-02 1.025658500199999956e+01
1.014387105299999980e+01 0.000000000000000000e+00 0.000000000000000000e+00 -2.349814600000000100e-02 1.054698953299999964e+01 0.000000000000000000e+00 2.106571600000000169e-02 -2.197634500000000130e-02 1.011477839800000034e+01
1.028134075000000003e+01 0.000000000000000000e+00 0.000000000000000000e+00 -2.381659300000000049e-02 1.068992229100000024e+01 0.000000000000000000e+00 2.135119799999999832e-02 -2.227416800000000044e-02 1.025185383100000003e+01
1.036873388200000079e+01 0.000000000000000000e+00 0.000000000000000000e+00 2.405391499999999863e-02 1.078072939199999958e+01 0.000000000000000000e+00 2.155571300000000065e-02 2.236069499999999988e-02 1.033901270500000003e+01
1.032324326500000033e+01 0.000000000000000000e+00 0.000000000000000000e+00 -2.391365999999999978e-02 1.073349001599999930e+01 0.000000000000000000e+00 2.143821699999999900e-02 -2.236494799999999908e-02 1.029363616999999920e+01
1.024942491600000061e+01 0.000000000000000000e+00 0.000000000000000000e+00 2.377713600000000080e-02 1.065667975500000075e+01 0.000000000000000000e+00 2.130767999999999898e-02 2.210339899999999927e-02 1.022004572900000063e+01
1.024105132500000082e+01 0.000000000000000000e+00 0.000000000000000000e+00 -2.372326300000000138e-02 1.064803175900000021e+01 0.000000000000000000e+00 2.126752900000000029e-02 -2.218688200000000152e-02 1.021167995599999934e+01
1.010964822599999913e+01 0.000000000000000000e+00 0.000000000000000000e+00 -2.341886899999999841e-02 1.051140668799999922e+01 0.000000000000000000e+00 2.099464499999999928e-02 -2.190220199999999909e-02 1.008065372199999921e+01
1.011321591099999928e+01 0.000000000000000000e+00 0.000000000000000000e+00 -2.342713399999999876e-02 1.051511615299999924e+01 0.000000000000000000e+00 2.100205399999999917e-02 -2.190993100000000054e-02 1.008421117500000008e+01
1.027307123499999975e+01 0.000000000000000000e+00 0.000000000000000000e+00 2.383199199999999976e-02 1.068126564700000003e+01 0.000000000000000000e+00 2.135683899999999899e-02 2.215439400000000086e-02 1.024362426799999959e+01
1.032530702999999939e+01 0.000000000000000000e+00 0.000000000000000000e+00 2.395317099999999880e-02 1.073557700099999934e+01 0.000000000000000000e+00 2.146543299999999904e-02 2.226704300000000025e-02 1.029571033300000060e+01
1.016884985599999958e+01 0.000000000000000000e+00 0.000000000000000000e+00 2.359021400000000171e-02 1.057290309300000075e+01 0.000000000000000000e+00 2.114017199999999874e-02 2.192963499999999941e-02 1.013970163199999952e+01
1.026998966000000024e+01 0.000000000000000000e+00 0.000000000000000000e+00 -2.379029800000000139e-02 1.067812010799999989e+01 0.000000000000000000e+00 2.132762499999999936e-02 -2.224957600000000008e-02 1.024053529699999920e+01
1.024016428100000020e+01 0.000000000000000000e+00 0.000000000000000000e+00 -2.372120800000000057e-02 1.064710946499999977e+01 0.000000000000000000e+00 2.126568699999999840e-02 -2.218496099999999957e-02 1.021079545699999969e+01
1.018267594399999965e+01 0.000000000000000000e+00 0.000000000000000000e+00 -2.358803699999999920e-02 1.058733653500000038e+01 0.000000000000000000e+00 2.114630099999999929e-02 -2.206041400000000041e-02 1.015347199700000047e+01
1.037010852499999913e+01 0.000000000000000000e+00 0.000000000000000000e+00 2.405710399999999929e-02 1.078215865700000009e+01 0.000000000000000000e+00 2.155857099999999860e-02 2.236366000000000048e-02 1.034038340799999922e+01
1.028537977400000081e+01 0.000000000000000000e+00 0.000000000000000000e+00 2.386054599999999984e-02 1.069406325899999999e+01 0.000000000000000000e+00 2.138242699999999899e-02 2.218093800000000074e-02 1.025589752600000004e+01
1.011274228099999917e+01 0.000000000000000000e+00 0.000000000000000000e+00 -2.342603700000000025e-02 1.051462370099999966e+01 0.000000000000000000e+00 2.100107099999999963e-02 -2.190890499999999935e-02 1.008373890400000050e+01
1.007753051299999925e+01 0.000000000000000000e+00 0.000000000000000000e+00 -2.334446899999999964e-02 1.047801261300000064e+01 0.000000000000000000e+00 2.092794699999999883e-02 -2.183262000000000050e-02 1.004862812200000022e+01
1.017963689900000013e+01 0.000000000000000000e+00 0.000000000000000000e+00 2.361523800000000020e-02 1.058411875300000027e+01 0.000000000000000000e+00 2.116259699999999827e-02 2.195289799999999847e-02 1.015045775399999961e+01
1.027796391400000076e+01 0.000000000000000000e+00 0.000000000000000000e+00 2.384334200000000001e-02 1.068635273299999966e+01 0.000000000000000000e+00 2.136700999999999878e-02 2.216494499999999840e-02 1.024850292200000013e+01
1.021365011099999975e+01 0.000000000000000000e+00 0.000000000000000000e+00 2.369414400000000032e-02 1.061948345899999957e+01 0.000000000000000000e+00 2.123330699999999988e-02 2.202624900000000122e-02 1.018437346900000051e+01
1.013776174899999916e+01 0.000000000000000000e+00 0.000000000000000000e+00 -2.348399400000000109e-02 1.054063744499999977e+01 0.000000000000000000e+00 2.105302800000000141e-02 -2.196310900000000149e-02 1.010868661499999988e+01
1.025604890900000044e+01 0.000000000000000000e+00 0.000000000000000000e+00 -2.375800499999999871e-02 1.066362534900000014e+01 0.000000000000000000e+00 2.129867499999999955e-02 -2.221937400000000007e-02 1.022663452699999986e+01
1.031213847100000081e+01 0.000000000000000000e+00 0.000000000000000000e+00 2.392262200000000102e-02 1.072188519600000056e+01 0.000000000000000000e+00 2.143805600000000047e-02 2.223864399999999839e-02 1.028257952000000053e+01
1.029808373100000018e+01 0.000000000000000000e+00 0.000000000000000000e+00 -2.385537800000000000e-02 1.070733063900000026e+01 0.000000000000000000e+00 2.138596800000000173e-02 -2.231044100000000030e-02 1.026854879300000079e+01
1.029492278999999932e+01 0.000000000000000000e+00 0.000000000000000000e+00 -2.384805599999999942e-02 1.070404408199999935e+01 0.000000000000000000e+00 2.137940400000000116e-02 -2.230359300000000003e-02 1.026539691800000043e+01
1.034009805700000051e+01 0.000000000000000000e+00 0.000000000000000000e+00 -2.395270399999999827e-02 1.075101461899999933e+01 0.000000000000000000e+00 2.147321900000000172e-02 -2.240146399999999940e-02 1.031044262200000006e+01
1.035157953400000075e+01 0.000000000000000000e+00 0.000000000000000000e+00 2.401411999999999991e-02 1.076289342699999985e+01 0.000000000000000000e+00 2.152005099999999838e-02 2.232370100000000135e-02 1.032190752900000064e+01
1.036191521599999987e+01 0.000000000000000000e+00 0.000000000000000000e+00 2.403809700000000132e-02 1.077363979100000080e+01 0.000000000000000000e+00 2.154153799999999896e-02 2.234598999999999960e-02 1.033221358399999978e+01
1.031234669000000004e+01 0.000000000000000000e+00 0.000000000000000000e+00 -2.388841800000000154e-02 1.072216041000000075e+01 0.000000000000000000e+00 2.141558799999999929e-02 -2.234134100000000067e-02 1.028277084600000002e+01
1.030891525200000025e+01 0.000000000000000000e+00 0.000000000000000000e+00 -2.388046900000000139e-02 1.071859260599999963e+01 0.000000000000000000e+00 2.140846199999999963e-02 -2.233390700000000006e-02 1.027934924999999922e+01
1.007317274899999937e+01 0.000000000000000000e+00 0.000000000000000000e+00 2.336825699999999992e-02 1.047342431200000057e+01 0.000000000000000000e+00 2.094126699999999952e-02 2.172330299999999936e-02 1.004429877499999968e+01
1.012545041699999970e+01 0.000000000000000000e+00 0.000000000000000000e+00 2.348953399999999941e-02 1.052777920299999970e+01 0.000000000000000000e+00 2.104994799999999888e-02 2.183604199999999995e-02 1.009642659300000034e+01
