-9.211494945700000017e+02
-9.285529265000000123e+02
-9.294327919999999494e+02
-9.394652394900000445e+02
-9.273064779300000282e+02
-9.307281793299999890e+02
-9.270028361500000074e+02
-9.335814542299999630e+02
-9.246162901899999724e+02
-9.219388720800000101e+02
-9.281010296700000026e+02
-9.260640317099999947e+02
-9.313994563999999627e+02
-9.426369948699999668e+02
-9.341339546399999563e+02
-9.276295375900000408e+02
-9.349330036400000381e+02
-9.278309719300000324e+02
-9.266955461400000331e+02
-9.317827462799999694e+02
-9.216446120800000017e+02
-9.361890897600000017e+02
-9.250498474199999919e+02
-9.268744571700000279e+02
-9.299519837499999539e+02
-9.305673272300000463e+02
-9.238927820100000190e+02
-9.292095298499999672e+02
-9.336110307999999804e+02
-9.145172444800000449e+02
-9.247246867699999484e+02
-9.107323036000000229e+02
-9.202941012300000239e+02
-9.328234624299999496e+02
-9.216959599900000057e+02
-9.298825134600000411e+02
-9.222051596699999436e+02
-9.306120793799999547e+02
-9.324162539599999491e+02
-9.304336383200000000e+02
-9.178297972300000538e+02
-9.305925111300000481e+02
-9.212078901400000177e+02
-9.237993725999999697e+02
-9.294651034800000389e+02
-9.309589268900000434e+02
-9.268876059499999656e+02
-9.253492083600000342e+02
-9.288836756599999944e+02
-9.205236156700000265e+02
