1.052555947499999967e+01 0.000000000000000000e+00 0.000000000000000000e+00 -7.009782300000000355e-02 1.052534550100000033e+01 0.000000000000000000e+00 -1.958039999999999976e-04 2.273510000000000125e-04 1.084096881299999993e+01
1.024203538799999968e+01 0.000000000000000000e+00 0.000000000000000000e+00 -6.820961700000000016e-02 1.024182717799999942e+01 0.000000000000000000e+00 -1.905300000000000071e-04 2.212270000000000013e-04 1.054894863200000010e+01
1.040558095199999933e+01 0.000000000000000000e+00 0.000000000000000000e+00 -6.929879299999999742e-02 1.040536941799999937e+01 0.000000000000000000e+00 -1.935720000000000095e-04 2.247589999999999939e-04 1.071739500900000053e+01
1.044618795699999936e+01 0.000000000000000000e+00 0.000000000000000000e+00 -6.956922599999999790e-02 1.044597559700000033e+01 0.000000000000000000e+00 -1.943279999999999866e-04 2.256360000000000060e-04 1.075921884499999948e+01
1.034225018200000079e+01 0.000000000000000000e+00 0.000000000000000000e+00 -6.887702499999999450e-02 1.034203993500000074e+01 0.000000000000000000e+00 -1.923940000000000014e-04 2.233910000000000030e-04 1.065216646600000061e+01
1.035786837200000043e+01 0.000000000000000000e+00 0.000000000000000000e+00 -6.898103799999999453e-02 1.035765780700000072e+01 0.000000000000000000e+00 -1.926850000000000025e-04 2.237290000000000123e-04 1.066825267199999949e+01
1.034567766099999986e+01 0.000000000000000000e+00 0.000000000000000000e+00 -6.889985099999999807e-02 1.034546734499999943e+01 0.000000000000000000e+00 -1.924580000000000062e-04 2.234650000000000026e-04 1.065569665399999977e+01
1.045936765999999984e+01 0.000000000000000000e+00 0.000000000000000000e+00 -6.965699999999999670e-02 1.045915503199999996e+01 0.000000000000000000e+00 -1.945729999999999953e-04 2.259209999999999940e-04 1.077279349199999992e+01
1.045922234999999922e+01 0.000000000000000000e+00 0.000000000000000000e+00 -6.965603300000000608e-02 1.045900972499999959e+01 0.000000000000000000e+00 -1.945700000000000023e-04 2.259180000000000010e-04 1.077264382699999956e+01
1.028009673600000085e+01 0.000000000000000000e+00 0.000000000000000000e+00 -6.846309700000000054e-02 1.027988775200000049e+01 0.000000000000000000e+00 -1.912379999999999874e-04 2.220489999999999877e-04 1.058815052699999981e+01
1.030788864500000024e+01 0.000000000000000000e+00 0.000000000000000000e+00 -6.864818500000000046e-02 1.030767909599999932e+01 0.000000000000000000e+00 -1.917549999999999962e-04 2.226490000000000023e-04 1.061677524999999989e+01
1.041253883399999935e+01 0.000000000000000000e+00 0.000000000000000000e+00 -6.934513100000000430e-02 1.041232715800000008e+01 0.000000000000000000e+00 -1.937019999999999964e-04 2.249100000000000133e-04 1.072456139099999994e+01
1.022060901699999924e+01 0.000000000000000000e+00 0.000000000000000000e+00 -6.806692200000000192e-02 1.022040124199999944e+01 0.000000000000000000e+00 -1.901310000000000131e-04 2.207640000000000026e-04 1.052688019700000055e+01
1.040949830699999978e+01 0.000000000000000000e+00 0.000000000000000000e+00 -6.932488200000000433e-02 1.040928669300000031e+01 0.000000000000000000e+00 -1.936449999999999933e-04 2.248440000000000041e-04 1.072142975200000059e+01
1.011140553199999914e+01 0.000000000000000000e+00 0.000000000000000000e+00 -6.733965199999999984e-02 1.011119997800000014e+01 0.000000000000000000e+00 -1.880999999999999914e-04 2.184049999999999935e-04 1.041440431600000061e+01
1.055228872700000053e+01 0.000000000000000000e+00 0.000000000000000000e+00 -7.027583299999999589e-02 1.055207421000000068e+01 0.000000000000000000e+00 -1.963009999999999896e-04 2.279279999999999902e-04 1.086849903499999925e+01
1.031571788399999967e+01 0.000000000000000000e+00 0.000000000000000000e+00 -6.870032600000000600e-02 1.031550817599999981e+01 0.000000000000000000e+00 -1.919009999999999911e-04 2.228180000000000069e-04 1.062483910099999918e+01
1.022251014200000085e+01 0.000000000000000000e+00 0.000000000000000000e+00 -6.807958299999999907e-02 1.022230232899999969e+01 0.000000000000000000e+00 -1.901670000000000107e-04 2.208049999999999976e-04 1.052883829199999965e+01
1.027227090999999959e+01 0.000000000000000000e+00 0.000000000000000000e+00 -6.841097899999999676e-02 1.027206208600000004e+01 0.000000000000000000e+00 -1.910919999999999926e-04 2.218800000000000102e-04 1.058009019300000020e+01
1.028561528200000019e+01 0.000000000000000000e+00 0.000000000000000000e+00 -6.849984900000000154e-02 1.028540618699999953e+01 0.000000000000000000e+00 -1.913410000000000100e-04 2.221679999999999911e-04 1.059383444300000043e+01
1.038197381200000002e+01 0.000000000000000000e+00 0.000000000000000000e+00 -6.914157499999999679e-02 1.038176275700000062e+01 0.000000000000000000e+00 -1.931330000000000091e-04 2.242489999999999870e-04 1.069308045600000057e+01
1.036316982900000028e+01 0.000000000000000000e+00 0.000000000000000000e+00 -6.901634500000000672e-02 1.036295915700000059e+01 0.000000000000000000e+00 -1.927830000000000006e-04 2.238429999999999912e-04 1.067371299300000054e+01
1.028005885500000005e+01 0.000000000000000000e+00 0.000000000000000000e+00 -6.846284499999999440e-02 1.027984987299999986e+01 0.000000000000000000e+00 -1.912369999999999988e-04 2.220479999999999991e-04 1.058811151199999934e+01
1.045993534499999988e+01 0.000000000000000000e+00 0.000000000000000000e+00 -6.966078100000000495e-02 1.045972270500000079e+01 0.000000000000000000e+00 -1.945829999999999901e-04 2.259329999999999932e-04 1.077337818800000058e+01
1.036769394400000088e+01 0.000000000000000000e+00 0.000000000000000000e+00 -6.904647399999999657e-02 1.036748318000000069e+01 0.000000000000000000e+00 -1.928669999999999950e-04 2.239409999999999892e-04 1.067837267700000048e+01
1.041837672599999998e+01 0.000000000000000000e+00 0.000000000000000000e+00 -6.938400999999999597e-02 1.041816493199999982e+01 0.000000000000000000e+00 -1.938099999999999892e-04 2.250359999999999915e-04 1.073057422199999955e+01
1.044761682100000044e+01 0.000000000000000000e+00 0.000000000000000000e+00 -6.957874199999999898e-02 1.044740443200000080e+01 0.000000000000000000e+00 -1.943539999999999894e-04 2.256670000000000063e-04 1.076069052599999942e+01
1.038880607900000008e+01 0.000000000000000000e+00 0.000000000000000000e+00 -6.918707600000000013e-02 1.038859488499999983e+01 0.000000000000000000e+00 -1.932600000000000030e-04 2.243970000000000133e-04 1.070011745899999944e+01
1.010134857599999947e+01 0.000000000000000000e+00 0.000000000000000000e+00 -6.727267500000000400e-02 1.010114322599999959e+01 0.000000000000000000e+00 -1.879130000000000015e-04 2.181879999999999920e-04 1.040404599300000044e+01
1.035404639200000076e+01 0.000000000000000000e+00 0.000000000000000000e+00 -6.895558499999999980e-02 1.035383590500000039e+01 0.000000000000000000e+00 -1.926139999999999959e-04 2.236460000000000065e-04 1.066431616300000051e+01
1.024104049399999994e+01 0.000000000000000000e+00 0.000000000000000000e+00 -6.820299100000000447e-02 1.024083230399999955e+01 0.000000000000000000e+00 -1.905110000000000061e-04 2.212050000000000073e-04 1.054792392499999920e+01
1.039704284899999998e+01 0.000000000000000000e+00 0.000000000000000000e+00 -6.924193100000000656e-02 1.039683148700000004e+01 0.000000000000000000e+00 -1.934129999999999996e-04 2.245749999999999971e-04 1.070860105200000056e+01
1.023380157200000085e+01 0.000000000000000000e+00 0.000000000000000000e+00 -6.815478199999999709e-02 1.023359352900000019e+01 0.000000000000000000e+00 -1.903770000000000104e-04 2.210489999999999905e-04 1.054046808100000021e+01
1.041387869699999946e+01 0.000000000000000000e+00 0.000000000000000000e+00 -6.935405399999999831e-02 1.041366699399999973e+01 0.000000000000000000e+00 -1.937270000000000105e-04 2.249379999999999934e-04 1.072594140500000037e+01
1.045324231600000076e+01 0.000000000000000000e+00 0.000000000000000000e+00 -6.961620699999999939e-02 1.045302981300000056e+01 0.000000000000000000e+00 -1.944589999999999893e-04 2.257890000000000027e-04 1.076648459499999966e+01
1.041040494499999980e+01 0.000000000000000000e+00 0.000000000000000000e+00 -6.933092000000000421e-02 1.041019331300000061e+01 0.000000000000000000e+00 -1.936619999999999900e-04 2.248630000000000051e-04 1.072236355799999963e+01
1.034154581399999984e+01 0.000000000000000000e+00 0.000000000000000000e+00 -6.887233399999999339e-02 1.034133558099999917e+01 0.000000000000000000e+00 -1.923809999999999865e-04 2.233760000000000107e-04 1.065144099099999941e+01
1.038924814699999999e+01 0.000000000000000000e+00 0.000000000000000000e+00 -6.919002000000000485e-02 1.038903694500000086e+01 0.000000000000000000e+00 -1.932679999999999934e-04 2.244059999999999924e-04 1.070057277499999948e+01
1.038005774700000039e+01 0.000000000000000000e+00 0.000000000000000000e+00 -6.912881399999999676e-02 1.037984673100000066e+01 0.000000000000000000e+00 -1.930970000000000115e-04 2.242079999999999919e-04 1.069110697400000021e+01
1.016551354899999993e+01 0.000000000000000000e+00 0.000000000000000000e+00 -6.769999899999999682e-02 1.016530689500000051e+01 0.000000000000000000e+00 -1.891060000000000017e-04 2.195739999999999953e-04 1.047013373599999930e+01
1.030460635899999922e+01 0.000000000000000000e+00 0.000000000000000000e+00 -6.862632500000000191e-02 1.030439687700000029e+01 0.000000000000000000e+00 -1.916940000000000115e-04 2.225779999999999957e-04 1.061339460700000004e+01
1.034234389100000051e+01 0.000000000000000000e+00 0.000000000000000000e+00 -6.887764899999999912e-02 1.034213364100000021e+01 0.000000000000000000e+00 -1.923960000000000058e-04 2.233930000000000074e-04 1.065226298299999996e+01
1.017615522900000080e+01 0.000000000000000000e+00 0.000000000000000000e+00 -6.777086999999999695e-02 1.017594835799999942e+01 0.000000000000000000e+00 -1.893040000000000022e-04 2.198040000000000117e-04 1.048109430499999917e+01
1.054864076099999970e+01 0.000000000000000000e+00 0.000000000000000000e+00 -7.025153900000000173e-02 1.054842631800000063e+01 0.000000000000000000e+00 -1.962339999999999918e-04 2.278489999999999932e-04 1.086474175400000064e+01
1.048117213699999972e+01 0.000000000000000000e+00 0.000000000000000000e+00 -6.980221300000000184e-02 1.048095906600000049e+01 0.000000000000000000e+00 -1.949780000000000024e-04 2.263920000000000103e-04 1.079525136300000021e+01
1.035495914500000048e+01 0.000000000000000000e+00 0.000000000000000000e+00 -6.896166300000000637e-02 1.035474863900000031e+01 0.000000000000000000e+00 -1.926309999999999926e-04 2.236659999999999961e-04 1.066525626700000018e+01
1.026906020200000036e+01 0.000000000000000000e+00 0.000000000000000000e+00 -6.838959599999999694e-02 1.026885144300000086e+01 0.000000000000000000e+00 -1.910330000000000123e-04 2.218099999999999922e-04 1.057678327300000021e+01
1.035553394599999955e+01 0.000000000000000000e+00 0.000000000000000000e+00 -6.896549100000000376e-02 1.035532342800000016e+01 0.000000000000000000e+00 -1.926409999999999874e-04 2.236779999999999953e-04 1.066584829199999973e+01
1.034887110300000046e+01 0.000000000000000000e+00 0.000000000000000000e+00 -6.892111800000000343e-02 1.034866072099999990e+01 0.000000000000000000e+00 -1.925169999999999865e-04 2.235340000000000048e-04 1.065898578999999913e+01
1.046207103899999957e+01 0.000000000000000000e+00 0.000000000000000000e+00 -6.967500399999999872e-02 1.046185835600000047e+01 0.000000000000000000e+00 -1.946229999999999965e-04 2.259790000000000128e-04 1.077557788000000016e+01
1.039043906799999917e+01 0.000000000000000000e+00 0.000000000000000000e+00 -6.919795199999999313e-02 1.039022784099999974e+01 0.000000000000000000e+00 -1.932910000000000032e-04 2.244319999999999952e-04 1.070179938200000080e+01
1.036192658000000044e+01 0.000000000000000000e+00 0.000000000000000000e+00 -6.900806499999999344e-02 1.036171593299999927e+01 0.000000000000000000e+00 -1.927599999999999908e-04 2.238159999999999998e-04 1.067243248800000011e+01
1.037762429900000072e+01 0.000000000000000000e+00 0.000000000000000000e+00 -6.911260800000000593e-02 1.037741333199999971e+01 0.000000000000000000e+00 -1.930520000000000077e-04 2.241549999999999977e-04 1.068860060499999953e+01
1.039528628000000054e+01 0.000000000000000000e+00 0.000000000000000000e+00 -6.923023300000000213e-02 1.039507495400000003e+01 0.000000000000000000e+00 -1.933810000000000108e-04 2.245369999999999951e-04 1.070679184599999978e+01
1.033947533199999924e+01 0.000000000000000000e+00 0.000000000000000000e+00 -6.885854499999999323e-02 1.033926514200000035e+01 0.000000000000000000e+00 -1.923430000000000116e-04 2.233310000000000069e-04 1.064930846600000081e+01
1.029452572199999949e+01 0.000000000000000000e+00 0.000000000000000000e+00 -6.855919100000000543e-02 1.029431644499999976e+01 0.000000000000000000e+00 -1.915060000000000059e-04 2.223600000000000056e-04 1.060301189399999977e+01
1.004426418999999981e+01 0.000000000000000000e+00 0.000000000000000000e+00 -6.689250600000000435e-02 1.004406000100000007e+01 0.000000000000000000e+00 -1.868510000000000038e-04 2.169550000000000124e-04 1.034525101500000055e+01
1.043987592300000067e+01 0.000000000000000000e+00 0.000000000000000000e+00 -6.952719000000000260e-02 1.043966369099999980e+01 0.000000000000000000e+00 -1.942099999999999990e-04 2.255000000000000060e-04 1.075271766400000040e+01
1.034448526499999943e+01 0.000000000000000000e+00 0.000000000000000000e+00 -6.889191000000000065e-02 1.034427497299999921e+01 0.000000000000000000e+00 -1.924360000000000122e-04 2.234399999999999884e-04 1.065446852700000058e+01
1.018587098499999932e+01 0.000000000000000000e+00 0.000000000000000000e+00 -6.783557499999999518e-02 1.018566391699999940e+01 0.000000000000000000e+00 -1.894850000000000061e-04 2.200140000000000114e-04 1.049110120399999957e+01
1.043315428600000061e+01 0.000000000000000000e+00 0.000000000000000000e+00 -6.948242500000000044e-02 1.043294219100000042e+01 0.000000000000000000e+00 -1.940850000000000095e-04 2.253549999999999998e-04 1.074579460700000055e+01
1.045292708100000034e+01 0.000000000000000000e+00 0.000000000000000000e+00 -6.961410699999999452e-02 1.045271458400000064e+01 0.000000000000000000e+00 -1.944530000000000032e-04 2.257820000000000009e-04 1.076615991399999928e+01
1.040644657600000045e+01 0.000000000000000000e+00 0.000000000000000000e+00 -6.930455800000000222e-02 1.040623502400000078e+01 0.000000000000000000e+00 -1.935879999999999903e-04 2.247779999999999950e-04 1.071828657200000023e+01
1.020274023200000002e+01 0.000000000000000000e+00 0.000000000000000000e+00 -6.794791999999999499e-02 1.020253282100000014e+01 0.000000000000000000e+00 -1.897989999999999899e-04 2.203779999999999964e-04 1.050847595599999984e+01
1.045075713399999984e+01 0.000000000000000000e+00 0.000000000000000000e+00 -6.959965599999999586e-02 1.045054468100000022e+01 0.000000000000000000e+00 -1.944129999999999968e-04 2.257349999999999927e-04 1.076392494199999916e+01
1.033715480200000059e+01 0.000000000000000000e+00 0.000000000000000000e+00 -6.884309099999999515e-02 1.033694465800000017e+01 0.000000000000000000e+00 -1.922989999999999964e-04 2.232810000000000057e-04 1.064691839800000039e+01
1.017297281599999970e+01 0.000000000000000000e+00 0.000000000000000000e+00 -6.774967599999999479e-02 1.017276601000000014e+01 0.000000000000000000e+00 -1.892449999999999948e-04 2.197350000000000095e-04 1.047781652799999996e+01
1.032833561800000055e+01 0.000000000000000000e+00 0.000000000000000000e+00 -6.878435700000000430e-02 1.032812565400000082e+01 0.000000000000000000e+00 -1.921349999999999892e-04 2.230909999999999957e-04 1.063783493799999924e+01
1.015111717199999930e+01 0.000000000000000000e+00 0.000000000000000000e+00 -6.760412200000000260e-02 1.015091080999999917e+01 0.000000000000000000e+00 -1.888389999999999990e-04 2.192630000000000046e-04 1.045530595700000021e+01
1.038948826600000075e+01 0.000000000000000000e+00 0.000000000000000000e+00 -6.919161899999999588e-02 1.038927705899999943e+01 0.000000000000000000e+00 -1.932729999999999908e-04 2.244120000000000056e-04 1.070082008900000048e+01
1.043590282499999944e+01 0.000000000000000000e+00 0.000000000000000000e+00 -6.950072999999999668e-02 1.043569067399999994e+01 0.000000000000000000e+00 -1.941359999999999993e-04 2.254140000000000072e-04 1.074862550799999994e+01
1.020543624099999924e+01 0.000000000000000000e+00 0.000000000000000000e+00 -6.796587499999999504e-02 1.020522877500000014e+01 0.000000000000000000e+00 -1.898489999999999911e-04 2.204359999999999881e-04 1.051125275300000084e+01
1.033322877600000034e+01 0.000000000000000000e+00 0.000000000000000000e+00 -6.881694400000000489e-02 1.033301871199999944e+01 0.000000000000000000e+00 -1.922260000000000125e-04 2.231959999999999955e-04 1.064287472400000034e+01
1.035664968200000047e+01 0.000000000000000000e+00 0.000000000000000000e+00 -6.897292200000000595e-02 1.035643914199999926e+01 0.000000000000000000e+00 -1.926619999999999928e-04 2.237019999999999937e-04 1.066699746199999943e+01
1.053525935000000047e+01 0.000000000000000000e+00 0.000000000000000000e+00 -7.016242200000000206e-02 1.053504517999999912e+01 0.000000000000000000e+00 -1.959850000000000014e-04 2.275599999999999964e-04 1.085095935500000053e+01
1.033290213299999927e+01 0.000000000000000000e+00 0.000000000000000000e+00 -6.881476899999999786e-02 1.033269207600000072e+01 0.000000000000000000e+00 -1.922199999999999994e-04 2.231889999999999937e-04 1.064253829299999943e+01
1.013161469299999951e+01 0.000000000000000000e+00 0.000000000000000000e+00 -6.747424000000000477e-02 1.013140872700000017e+01 0.000000000000000000e+00 -1.884760000000000027e-04 2.188419999999999894e-04 1.043521906600000015e+01
1.026270946100000003e+01 0.000000000000000000e+00 0.000000000000000000e+00 -6.834730199999999867e-02 1.026250083000000046e+01 0.000000000000000000e+00 -1.909140000000000088e-04 2.216730000000000035e-04 1.057024222499999944e+01
1.011591968900000005e+01 0.000000000000000000e+00 0.000000000000000000e+00 -6.736971499999999669e-02 1.011571404300000054e+01 0.000000000000000000e+00 -1.881840000000000129e-04 2.185029999999999915e-04 1.041905374499999937e+01
1.039762068299999953e+01 0.000000000000000000e+00 0.000000000000000000e+00 -6.924578000000000677e-02 1.039740931100000054e+01 0.000000000000000000e+00 -1.934240000000000102e-04 2.245869999999999963e-04 1.070919620299999941e+01
1.016671676400000024e+01 0.000000000000000000e+00 0.000000000000000000e+00 -6.770801199999999798e-02 1.016651008500000053e+01 0.000000000000000000e+00 -1.891290000000000115e-04 2.195999999999999981e-04 1.047137300700000040e+01
1.030098325400000014e+01 0.000000000000000000e+00 0.000000000000000000e+00 -6.860219600000000417e-02 1.030077384500000015e+01 0.000000000000000000e+00 -1.916259999999999979e-04 2.224999999999999873e-04 1.060966293200000088e+01
1.038639813800000056e+01 0.000000000000000000e+00 0.000000000000000000e+00 -6.917104000000000308e-02 1.038618699300000081e+01 0.000000000000000000e+00 -1.932149999999999992e-04 2.243450000000000077e-04 1.069763736200000004e+01
1.026839964500000058e+01 0.000000000000000000e+00 0.000000000000000000e+00 -6.838519699999999479e-02 1.026819089900000037e+01 0.000000000000000000e+00 -1.910199999999999973e-04 2.217959999999999886e-04 1.057610292200000046e+01
1.041900691100000031e+01 0.000000000000000000e+00 0.000000000000000000e+00 -6.938820699999999342e-02 1.041879510300000078e+01 0.000000000000000000e+00 -1.938219999999999884e-04 2.250490000000000064e-04 1.073122329000000086e+01
1.046902395200000058e+01 0.000000000000000000e+00 0.000000000000000000e+00 -6.972130899999999520e-02 1.046881112800000047e+01 0.000000000000000000e+00 -1.947519999999999948e-04 2.261300000000000050e-04 1.078273914500000075e+01
1.052384082899999918e+01 0.000000000000000000e+00 0.000000000000000000e+00 -7.008637700000000526e-02 1.052362688999999918e+01 0.000000000000000000e+00 -1.957720000000000087e-04 2.273139999999999991e-04 1.083919866599999970e+01
1.038773915099999989e+01 0.000000000000000000e+00 0.000000000000000000e+00 -6.917997100000000676e-02 1.038752797899999969e+01 0.000000000000000000e+00 -1.932400000000000133e-04 2.243740000000000036e-04 1.069901856000000073e+01
1.026597976100000054e+01 0.000000000000000000e+00 0.000000000000000000e+00 -6.836908099999999822e-02 1.026577106499999914e+01 0.000000000000000000e+00 -1.909749999999999935e-04 2.217440000000000101e-04 1.057361052299999926e+01
1.033177333599999947e+01 0.000000000000000000e+00 0.000000000000000000e+00 -6.880725099999999983e-02 1.033156330199999928e+01 0.000000000000000000e+00 -1.921989999999999940e-04 2.231649999999999953e-04 1.064137567100000048e+01
1.024627058199999929e+01 0.000000000000000000e+00 0.000000000000000000e+00 -6.823782200000000353e-02 1.024606228600000080e+01 0.000000000000000000e+00 -1.906090000000000041e-04 2.213179999999999976e-04 1.055331073800000041e+01
1.022392130299999913e+01 0.000000000000000000e+00 0.000000000000000000e+00 -6.808898100000000675e-02 1.022371346199999920e+01 0.000000000000000000e+00 -1.901930000000000135e-04 2.208350000000000092e-04 1.053029173999999912e+01
1.044858776799999944e+01 0.000000000000000000e+00 0.000000000000000000e+00 -6.958520899999999509e-02 1.044837536000000000e+01 0.000000000000000000e+00 -1.943720000000000018e-04 2.256880000000000116e-04 1.076169056900000065e+01
1.039050589400000035e+01 0.000000000000000000e+00 0.000000000000000000e+00 -6.919839699999999483e-02 1.039029466600000084e+01 0.000000000000000000e+00 -1.932919999999999918e-04 2.244339999999999996e-04 1.070186821100000074e+01
1.023098756299999934e+01 0.000000000000000000e+00 0.000000000000000000e+00 -6.813604099999999442e-02 1.023077957799999993e+01 0.000000000000000000e+00 -1.903239999999999891e-04 2.209880000000000058e-04 1.053756974799999924e+01
1.044244895699999987e+01 0.000000000000000000e+00 0.000000000000000000e+00 -6.954432600000000353e-02 1.044223667300000002e+01 0.000000000000000000e+00 -1.942579999999999958e-04 2.255559999999999933e-04 1.075536780200000031e+01
1.031315187899999941e+01 0.000000000000000000e+00 0.000000000000000000e+00 -6.868323699999999421e-02 1.031294222300000030e+01 0.000000000000000000e+00 -1.918529999999999942e-04 2.227630000000000083e-04 1.062219620199999959e+01
1.016392682899999933e+01 0.000000000000000000e+00 0.000000000000000000e+00 -6.768943199999999383e-02 1.016372020700000078e+01 0.000000000000000000e+00 -1.890770000000000059e-04 2.195400000000000021e-04 1.046849946899999928e+01
1.046003934800000046e+01 0.000000000000000000e+00 0.000000000000000000e+00 -6.966147400000000101e-02 1.045982670599999942e+01 0.000000000000000000e+00 -1.945849999999999945e-04 2.259360000000000133e-04 1.077348530699999962e+01
1.036393115699999967e+01 0.000000000000000000e+00 0.000000000000000000e+00 -6.902141500000000263e-02 1.036372046900000043e+01 0.000000000000000000e+00 -1.927970000000000042e-04 2.238599999999999878e-04 1.067449713499999930e+01
