4.635259999999999714e+00 2.989829999999999988e+00 2.642949999999999910e+00 3.876440000000000108e+00 2.991089999999999804e+00 7.978850000000000442e+00 4.766930000000000334e+00 8.414009999999999323e+00 2.659949999999999815e+00 3.859230000000000160e+00 8.175209999999999866e+00 7.886370000000000324e+00 -3.574700000000000100e-01 3.117820000000000036e+00 2.667009999999999881e+00 8.933880000000000265e+00 3.133869999999999933e+00 7.956739999999999924e+00 9.920790000000000219e+00 8.385139999999999816e+00 2.511800000000000033e+00 8.968569999999999709e+00 8.310050000000000381e+00 7.744939999999999714e+00 1.632849999999999913e+00 5.080799999999999761e-01 3.202440000000000175e+00 9.531199999999999672e-01 4.516999999999999904e-01 8.451670000000000016e+00 1.811320000000000041e+00 5.681540000000000035e+00 2.893679999999999808e+00 8.560900000000000176e-01 5.586459999999999759e+00 8.319940000000000779e+00 6.920180000000000220e+00 3.433800000000000185e-01 3.171209999999999862e+00 6.188460000000000072e+00 4.869299999999999740e-01 8.345090000000000785e+00 6.915939999999999976e+00 5.730229999999999713e+00 2.961510000000000087e+00 5.944600000000000328e+00 5.637270000000000003e+00 8.339909999999999712e+00 2.233849999999999891e+00 2.528919999999999835e+00 5.066599999999999993e-01 1.345040000000000013e+00 2.715939999999999799e+00 5.810979999999999812e+00 2.073599999999999888e+00 7.881300000000000416e+00 3.843300000000000050e-01 1.480979999999999963e+00 7.915070000000000050e+00 5.744030000000000413e+00 7.392059999999999853e+00 2.581519999999999815e+00 6.908800000000000496e-01 6.526480000000000281e+00 2.539210000000000189e+00 5.688620000000000232e+00 7.455960000000000143e+00 7.829729999999999634e+00 4.520700000000000274e-01 6.540799999999999947e+00 7.924159999999999648e+00 5.646410000000000373e+00 4.311230000000000118e+00 1.667700000000000016e-01 5.280000000000000249e+00 3.330639999999999823e+00 1.041188999999999965e+01 1.043707000000000029e+01 4.220679999999999765e+00 5.169270000000000032e+00 5.269660000000000011e+00 3.243180000000000174e+00 5.295289999999999608e+00 1.045907000000000053e+01 9.365909999999999513e+00 7.592000000000000137e-02 5.324349999999999916e+00 -1.734520000000000062e+00 1.033958999999999939e+01 1.036847000000000030e+01 9.418590000000000018e+00 5.360780000000000101e+00 5.177850000000000286e+00 8.469049999999999301e+00 5.199230000000000018e+00 1.051376999999999917e+01 3.550469999999999793e+00 4.586199999999999832e+00 3.454229999999999912e+00 2.329120000000000079e+00 4.337379999999999569e+00 8.707140000000000768e+00 3.618700000000000028e+00 9.840270000000000294e+00 3.587889999999999802e+00 2.558170000000000055e+00 9.465769999999999129e+00 8.661690000000000111e+00 8.702310000000000656e+00 4.523089999999999833e+00 3.089309999999999778e+00 7.785879999999999690e+00 4.610339999999999883e+00 8.759940000000000282e+00 8.758639999999999759e+00 9.824040000000000106e+00 3.438550000000000217e+00 7.912759999999999572e+00 9.741550000000000153e+00 8.506750000000000256e+00 2.887830000000000119e+00 1.885799999999999921e+00 2.315879999999999939e+00 2.308479999999999865e+00 1.524080000000000101e+00 7.517260000000000275e+00 2.868930000000000202e+00 7.351840000000000153e+00 2.290909999999999780e+00 2.195129999999999804e+00 6.816639999999999588e+00 7.550550000000000317e+00 8.223240000000000549e+00 2.019190000000000040e+00 2.445650000000000102e+00 7.256680000000000241e+00 1.925920000000000076e+00 7.602120000000000211e+00 8.131429999999999936e+00 7.352330000000000254e+00 2.358729999999999993e+00 7.117409999999999570e+00 7.174389999999999823e+00 7.688089999999999868e+00 2.462309999999999999e+00 1.156409999999999938e+00 5.014780000000000015e+00 1.630430000000000046e+00 1.028769999999999962e+00 1.029556999999999967e+01 2.555210000000000203e+00 6.338449999999999918e+00 4.863579999999999792e+00 1.607169999999999987e+00 6.507509999999999906e+00 1.049657000000000018e+01 7.642199999999999882e+00 1.118120000000000003e+00 5.071189999999999642e+00 6.840250000000000163e+00 9.714300000000000157e-01 1.036307000000000045e+01 7.674599999999999866e+00 6.278059999999999974e+00 4.979119999999999990e+00 6.695310000000000095e+00 6.161609999999999587e+00 1.041477000000000075e+01 3.986040000000000028e+00 3.636880000000000113e+00 8.662199999999999900e-01 3.111759999999999859e+00 3.706160000000000121e+00 5.916100000000000136e+00 3.959760000000000169e+00 9.208629999999999427e+00 9.218199999999999728e-01 3.187510000000000066e+00 8.825570000000000803e+00 5.951679999999999637e+00 9.321120000000000516e+00 3.661750000000000060e+00 7.297200000000000353e-01 8.352289999999999992e+00 3.854810000000000070e+00 5.927850000000000286e+00 9.337379999999999569e+00 8.771459999999999368e+00 6.581299999999999928e-01 8.107350000000000279e+00 9.059169999999999945e+00 5.837790000000000035e+00 8.659999999999999643e-02 1.652209999999999956e+00 4.160449999999999982e+00 -7.319799999999999640e-01 1.550669999999999993e+00 9.570370000000000488e+00 3.913900000000000157e-01 7.003049999999999997e+00 3.944310000000000205e+00 -6.721099999999999852e-01 6.826369999999999827e+00 9.163090000000000401e+00 5.275479999999999947e+00 1.508320000000000105e+00 4.099009999999999820e+00 4.482039999999999580e+00 1.608600000000000030e+00 9.314999999999999503e+00 5.438889999999999780e+00 6.926770000000000316e+00 4.051249999999999574e+00 1.415340000000000042e+00 4.233439999999999870e+00 1.576300000000000034e+00 3.257200000000000095e-01 4.312570000000000014e+00 6.924319999999999808e+00 1.175589999999999913e+00 9.428179999999999339e+00 1.736769999999999925e+00 2.095899999999999985e-01 9.663380000000000081e+00 6.806860000000000355e+00 6.275839999999999641e+00 4.188690000000000246e+00 1.705130000000000035e+00 5.610859999999999737e+00 4.015970000000000262e+00 7.207539999999999836e+00 6.286789999999999878e+00 9.447589999999999932e+00 1.757100000000000106e+00 5.421400000000000219e+00 9.262900000000000134e+00 6.955110000000000348e+00 7.158400000000000318e-01 4.206940000000000346e+00 4.041470000000000340e+00 -2.086899999999999866e-01 4.014000000000000234e+00 9.491849999999999454e+00 6.417199999999999571e-01 9.564579999999999416e+00 4.459299999999999820e+00 -2.405200000000000116e-01 9.198029999999999262e+00 9.448479999999999990e+00 5.657919999999999838e+00 3.965549999999999908e+00 4.302039999999999864e+00 4.857129999999999725e+00 4.081800000000000317e+00 9.554579999999999629e+00 5.932089999999999641e+00 9.386540000000000106e+00 4.315330000000000332e+00 4.877379999999999605e+00 9.017929999999999779e+00 9.709110000000000795e+00 6.005000000000000338e-01 1.475640000000000063e+00 1.530229999999999979e+00 -2.291499999999999926e-01 1.522429999999999950e+00 7.043800000000000061e+00 5.385799999999999477e-01 6.689669999999999561e+00 1.316210000000000102e+00 -4.194700000000000095e-01 6.781229999999999869e+00 6.579509999999999970e+00 5.819139999999999979e+00 1.435189999999999966e+00 1.460029999999999939e+00 4.951229999999999798e+00 1.509730000000000016e+00 6.929330000000000211e+00 5.796520000000000117e+00 6.899149999999999672e+00 1.289349999999999996e+00 4.955930000000000391e+00 6.610920000000000130e+00 6.664369999999999905e+00
4.695429999999999993e+00 3.246480000000000032e+00 2.429339999999999833e+00 3.927099999999999813e+00 3.160909999999999886e+00 7.957119999999999749e+00 4.756829999999999892e+00 8.312939999999999330e+00 2.668079999999999785e+00 3.842600000000000016e+00 8.218819999999999126e+00 7.986530000000000129e+00 9.830109999999999459e+00 3.223640000000000061e+00 2.617669999999999941e+00 9.021950000000000358e+00 3.019390000000000018e+00 7.742200000000000415e+00 9.751960000000000406e+00 8.167460000000000164e+00 2.698659999999999837e+00 8.796879999999999811e+00 8.159940000000000637e+00 8.092159999999999798e+00 1.782529999999999948e+00 5.647999999999999687e-01 3.065310000000000201e+00 8.614800000000000235e-01 3.866499999999999937e-01 8.199939999999999785e+00 1.841050000000000075e+00 5.679969999999999963e+00 3.037189999999999834e+00 8.032899999999999485e-01 5.592789999999999928e+00 8.393969999999999487e+00 7.060039999999999871e+00 5.830699999999999772e-01 3.101949999999999985e+00 6.179660000000000153e+00 5.122499999999999831e-01 8.458800000000000097e+00 6.844710000000000072e+00 5.703719999999999679e+00 3.105069999999999997e+00 6.113010000000000055e+00 5.600690000000000168e+00 8.345840000000000813e+00 2.248289999999999900e+00 2.547029999999999905e+00 3.302899999999999725e-01 1.630109999999999948e+00 2.696460000000000079e+00 5.704659999999999620e+00 2.275339999999999918e+00 7.959749999999999659e+00 5.610800000000000232e-01 1.341050000000000075e+00 7.786590000000000344e+00 5.780640000000000001e+00 7.560740000000000016e+00 2.626389999999999780e+00 4.221599999999999797e-01 6.379920000000000258e+00 2.673090000000000188e+00 5.725360000000000227e+00 7.302660000000000373e+00 7.910090000000000288e+00 4.162899999999999934e-01 6.607359999999999900e+00 7.940900000000000070e+00 5.564540000000000042e+00 4.267299999999999649e+00 1.029231000000000051e+01 5.325350000000000250e+00 3.317979999999999929e+00 1.042380999999999958e+01 1.047442999999999991e+01 4.245459999999999567e+00 5.273100000000000342e+00 5.288820000000000299e+00 3.220950000000000202e+00 5.424680000000000391e+00 1.051533000000000051e+01 -8.426599999999999646e-01 1.036830999999999925e+01 5.326069999999999638e+00 1.034473999999999982e+01 1.038141000000000069e+01 2.840000000000000163e-02 -8.697700000000000431e-01 5.151670000000000194e+00 5.332340000000000302e+00 -1.711219999999999963e+00 5.145970000000000155e+00 1.051872999999999969e+01 3.204930000000000057e+00 4.310120000000000395e+00 3.492490000000000094e+00 2.616210000000000147e+00 4.466179999999999595e+00 8.800570000000000448e+00 3.498610000000000220e+00 9.876049999999999329e+00 3.480649999999999800e+00 2.408030000000000115e+00 9.481109999999999260e+00 8.821559999999999846e+00 8.683020000000000849e+00 4.678539999999999921e+00 3.104670000000000041e+00 7.777050000000000018e+00 4.358640000000000292e+00 8.713150000000000617e+00 8.748490000000000322e+00 9.897100000000000009e+00 3.420980000000000132e+00 2.850429999999999797e+00 2.137630000000000141e+00 2.149659999999999904e+00 2.354140000000000121e+00 1.916260000000000074e+00 7.618439999999999657e+00 3.072080000000000144e+00 7.033330000000000304e+00 2.222170000000000201e+00 2.115289999999999893e+00 6.965449999999999697e+00 7.519050000000000011e+00 8.060610000000000497e+00 2.218649999999999789e+00 2.469019999999999992e+00 7.243219999999999992e+00 1.831830000000000069e+00 7.597529999999999895e+00 7.893489999999999895e+00 7.270920000000000272e+00 2.302389999999999937e+00 7.333910000000000373e+00 6.995589999999999975e+00 7.608460000000000001e+00 2.613220000000000098e+00 1.149070000000000036e+00 4.840499999999999581e+00 1.556950000000000056e+00 1.043840000000000101e+00 1.002890999999999977e+01 2.604859999999999953e+00 6.460679999999999978e+00 4.882249999999999979e+00 1.524739999999999984e+00 6.524449999999999861e+00 1.021423000000000059e+01 7.692470000000000141e+00 1.196700000000000097e+00 4.979800000000000004e+00 6.707709999999999617e+00 1.054619999999999891e+00 1.027962999999999916e+01 7.832150000000000389e+00 6.254039999999999822e+00 4.986030000000000406e+00 6.550229999999999997e+00 6.191659999999999719e+00 1.043632999999999988e+01 3.875100000000000211e+00 3.883350000000000080e+00 6.619399999999999729e-01 3.084389999999999965e+00 3.929650000000000087e+00 6.159510000000000041e+00 3.900689999999999991e+00 9.114959999999999951e+00 8.669000000000000039e-01 2.984510000000000218e+00 9.025320000000000675e+00 6.173729999999999940e+00 9.342879999999999185e+00 3.504620000000000068e+00 6.502999999999999892e-01 8.212979999999999947e+00 3.751660000000000217e+00 5.990050000000000097e+00 9.019249999999999545e+00 9.059300000000000352e+00 7.432400000000000118e-01 8.292889999999999873e+00 9.011739999999999640e+00 6.024600000000000399e+00 2.057499999999999885e-01 1.506729999999999903e+00 4.123719999999999608e+00 -8.225299999999999834e-01 1.494560000000000111e+00 9.258359999999999701e+00 3.177200000000000024e-01 6.590200000000000280e+00 3.935859999999999914e+00 -7.779099999999999904e-01 6.667110000000000092e+00 9.270469999999999544e+00 5.388869999999999827e+00 1.766420000000000101e+00 3.854849999999999888e+00 4.521799999999999820e+00 1.513339999999999907e+00 9.187150000000000816e+00 5.329209999999999781e+00 6.907840000000000202e+00 4.208849999999999980e+00 4.505460000000000242e+00 6.911150000000000126e+00 9.361980000000000857e+00 1.070210000000000106e+00 4.337900000000000311e+00 1.538880000000000026e+00 3.917599999999999971e-01 4.070780000000000065e+00 6.917570000000000441e+00 9.420399999999999885e-01 9.397750000000000270e+00 1.690830000000000055e+00 7.541000000000000481e-02 9.119419999999999860e+00 7.052340000000000053e+00 6.187179999999999680e+00 4.291430000000000078e+00 1.458159999999999901e+00 5.498190000000000133e+00 4.135110000000000063e+00 6.826290000000000191e+00 6.312140000000000306e+00 9.381539999999999324e+00 1.860360000000000014e+00 5.429120000000000168e+00 9.435760000000000147e+00 7.061280000000000001e+00 5.921100000000000252e-01 4.168239999999999945e+00 4.379789999999999850e+00 -1.776000000000000079e-01 4.146080000000000432e+00 9.562920000000000087e+00 6.229599999999999582e-01 9.128059999999999619e+00 4.225290000000000212e+00 -4.748399999999999843e-01 9.236729999999999663e+00 9.609420000000000073e+00 5.713910000000000267e+00 4.308699999999999974e+00 4.136510000000000353e+00 4.884000000000000341e+00 4.157989999999999853e+00 9.590780000000000527e+00 5.679520000000000124e+00 9.232359999999999900e+00 4.307820000000000427e+00 4.734029999999999738e+00 9.284890000000000754e+00 9.612310000000000798e+00 5.470399999999999707e-01 1.371140000000000025e+00 1.563339999999999952e+00 -2.434900000000000120e-01 1.509130000000000082e+00 6.796509999999999607e+00 5.581000000000000405e-01 6.832950000000000301e+00 1.161520000000000108e+00 -1.794600000000000084e-01 6.592939999999999579e+00 6.529080000000000439e+00 5.654110000000000191e+00 1.587860000000000049e+00 1.217209999999999903e+00 4.885580000000000034e+00 1.503830000000000000e+00 6.579170000000000407e+00 5.673849999999999838e+00 6.758700000000000152e+00 1.358230000000000048e+00 5.096680000000000099e+00 6.603839999999999932e+00 6.719219999999999970e+00
4.768530000000000157e+00 3.008189999999999920e+00 2.649030000000000218e+00 3.758410000000000029e+00 3.005129999999999857e+00 7.937999999999999723e+00 4.564549999999999663e+00 8.184960000000000235e+00 2.519810000000000105e+00 3.710710000000000175e+00 8.227809999999999846e+00 7.784690000000000332e+00 9.697720000000000340e+00 3.017079999999999984e+00 2.493920000000000137e+00 8.870509999999999451e+00 3.034250000000000114e+00 7.690929999999999822e+00 9.731289999999999552e+00 8.184440000000000381e+00 2.605859999999999843e+00 8.755630000000000024e+00 8.319580000000000197e+00 7.848980000000000068e+00 1.824410000000000087e+00 5.295600000000000307e-01 3.024560000000000137e+00 8.630100000000000549e-01 4.999700000000000255e-01 8.385849999999999582e+00 1.844109999999999916e+00 5.539229999999999876e+00 3.084159999999999791e+00 8.122599999999999820e-01 5.576419999999999710e+00 8.270939999999999515e+00 6.898900000000000254e+00 3.325299999999999923e-01 3.123040000000000038e+00 6.057059999999999889e+00 3.686699999999999977e-01 8.192379999999999995e+00 6.922259999999999636e+00 5.608670000000000044e+00 2.987190000000000012e+00 6.061980000000000146e+00 5.633320000000000327e+00 8.175990000000000535e+00 2.317140000000000200e+00 2.727529999999999788e+00 3.868900000000000117e-01 1.434029999999999916e+00 2.653610000000000024e+00 5.625449999999999839e+00 2.139819999999999833e+00 7.745569999999999844e+00 4.565299999999999914e-01 1.146279999999999966e+00 7.644999999999999574e+00 5.664889999999999759e+00 7.329220000000000290e+00 2.536519999999999886e+00 3.603100000000000191e-01 6.439449999999999896e+00 2.522619999999999862e+00 5.588460000000000427e+00 7.325020000000000309e+00 7.771749999999999936e+00 4.056100000000000261e-01 6.331959999999999589e+00 7.861320000000000086e+00 5.657370000000000232e+00 4.088779999999999859e+00 1.032530000000000037e+01 5.282680000000000042e+00 5.150509999999999700e+00 1.023811000000000071e+01 5.637999999999999956e-02 4.217640000000000278e+00 5.152669999999999639e+00 5.269580000000000375e+00 3.353400000000000158e+00 5.214879999999999960e+00 1.039171999999999940e+01 9.321780000000000399e+00 1.030572000000000088e+01 5.250029999999999752e+00 5.827000000000000235e-02 7.019000000000000239e-02 4.680000000000000132e-03 9.312699999999999534e+00 5.237669999999999604e+00 5.248199999999999754e+00 -1.692120000000000068e+00 5.283920000000000172e+00 1.042042000000000002e+01 3.540579999999999838e+00 4.395950000000000024e+00 3.405370000000000008e+00 2.450750000000000206e+00 4.394459999999999589e+00 8.693390000000000839e+00 3.484729999999999883e+00 9.666679999999999495e+00 3.373510000000000009e+00 2.623139999999999805e+00 9.683609999999999829e+00 8.632300000000000750e+00 8.731579999999999231e+00 4.732020000000000337e+00 3.158049999999999802e+00 7.831599999999999895e+00 4.531780000000000364e+00 8.457570000000000476e+00 8.502169999999999561e+00 9.558030000000000470e+00 3.583470000000000155e+00 3.172260000000000080e+00 1.825150000000000050e+00 2.264559999999999906e+00 2.029619999999999980e+00 1.910870000000000068e+00 7.527319999999999567e+00 3.055260000000000087e+00 6.974009999999999820e+00 2.162729999999999819e+00 2.172890000000000210e+00 6.934359999999999857e+00 7.388720000000000176e+00 8.264849999999999142e+00 1.711659999999999959e+00 2.210300000000000153e+00 7.121999999999999886e+00 1.940309999999999979e+00 7.475109999999999921e+00 7.846280000000000143e+00 7.212069999999999759e+00 2.361600000000000144e+00 7.184890000000000221e+00 7.282569999999999766e+00 7.728309999999999569e+00 2.624639999999999862e+00 1.222739999999999938e+00 4.854580000000000339e+00 1.724020000000000108e+00 1.097269999999999968e+00 1.021212000000000053e+01 2.623569999999999958e+00 6.401629999999999932e+00 4.894820000000000171e+00 1.805739999999999901e+00 6.460309999999999775e+00 1.013682000000000016e+01 7.523719999999999963e+00 9.659499999999999753e-01 5.048540000000000028e+00 6.814540000000000042e+00 1.090200000000000058e+00 9.981120000000000658e+00 7.614830000000000432e+00 6.293590000000000018e+00 4.994979999999999976e+00 6.752930000000000099e+00 6.334380000000000344e+00 1.003552000000000000e+01 4.021950000000000358e+00 3.769719999999999960e+00 8.743199999999999861e-01 3.090949999999999864e+00 3.690220000000000056e+00 6.120379999999999932e+00 3.740429999999999922e+00 8.987909999999999400e+00 7.248400000000000398e-01 2.741610000000000102e+00 9.076890000000000569e+00 6.086159999999999570e+00 9.150460000000000704e+00 3.754509999999999792e+00 6.889100000000000223e-01 8.171569999999999112e+00 3.581960000000000033e+00 5.813039999999999985e+00 8.962880000000000180e+00 9.000510000000000232e+00 9.119500000000000384e-01 8.014540000000000219e+00 8.880229999999999180e+00 6.007200000000000095e+00 2.878100000000000103e-01 1.513050000000000006e+00 3.915519999999999889e+00 -7.297099999999999698e-01 1.696600000000000108e+00 9.213820000000000121e+00 2.327299999999999924e-01 6.684300000000000352e+00 3.978219999999999867e+00 -6.739100000000000090e-01 6.816360000000000419e+00 9.223330000000000695e+00 5.402890000000000192e+00 1.547460000000000058e+00 4.115210000000000257e+00 4.455079999999999707e+00 1.489090000000000025e+00 9.217760000000000176e+00 5.390139999999999709e+00 6.588339999999999641e+00 3.966279999999999806e+00 4.454159999999999897e+00 6.571760000000000268e+00 9.041570000000000107e+00 1.105220000000000091e+00 4.166129999999999889e+00 1.520599999999999952e+00 1.385500000000000065e-01 4.210799999999999876e+00 6.690479999999999983e+00 1.108849999999999891e+00 9.115420000000000300e+00 1.726290000000000102e+00 2.663099999999999912e-01 9.271520000000000650e+00 6.815389999999999837e+00 6.351720000000000255e+00 4.124039999999999928e+00 1.634619999999999962e+00 5.505969999999999587e+00 4.229180000000000383e+00 6.770609999999999573e+00 6.278990000000000293e+00 9.276889999999999858e+00 1.700199999999999934e+00 5.249850000000000350e+00 9.258599999999999497e+00 6.765990000000000393e+00 7.393899999999999917e-01 4.029569999999999652e+00 4.206050000000000288e+00 -1.183000000000000024e-02 4.219520000000000159e+00 9.532610000000000028e+00 6.291999999999999815e-01 9.250069999999999126e+00 4.125709999999999766e+00 -2.196700000000000041e-01 9.320819999999999439e+00 9.384869999999999379e+00 5.984250000000000291e+00 3.944650000000000212e+00 4.134890000000000398e+00 5.014680000000000248e+00 4.050550000000000317e+00 9.477710000000000079e+00 5.680729999999999613e+00 9.189030000000000697e+00 4.166280000000000427e+00 4.994710000000000427e+00 9.098919999999999675e+00 9.549099999999999255e+00 8.585500000000000353e-01 1.482199999999999962e+00 1.358300000000000063e+00 -2.574100000000000277e-01 1.328109999999999902e+00 6.553099999999999703e+00 5.930499999999999661e-01 6.706319999999999837e+00 1.435619999999999896e+00 -3.663199999999999790e-01 6.724280000000000257e+00 6.668510000000000382e+00 5.926599999999999646e+00 1.438420000000000032e+00 1.529349999999999987e+00 4.850900000000000212e+00 1.400760000000000005e+00 6.781769999999999854e+00 5.690949999999999953e+00 6.725410000000000110e+00 1.281840000000000090e+00 4.817160000000000331e+00 6.654099999999999682e+00 6.590290000000000425e+00
4.611790000000000056e+00 3.013129999999999864e+00 2.548099999999999810e+00 3.727559999999999985e+00 3.057620000000000005e+00 7.722909999999999719e+00 4.703420000000000378e+00 8.245290000000000674e+00 2.649509999999999810e+00 3.689449999999999896e+00 8.208650000000000446e+00 7.711909999999999599e+00 -3.894599999999999729e-01 3.104109999999999925e+00 2.613519999999999843e+00 -1.266669999999999963e+00 3.008169999999999789e+00 7.957749999999999879e+00 9.710330000000000794e+00 8.148659999999999570e+00 2.666819999999999968e+00 8.827320000000000277e+00 8.098539999999999850e+00 7.875339999999999563e+00 1.738289999999999891e+00 3.531000000000000250e-01 2.965450000000000141e+00 1.067620000000000013e+00 4.210999999999999743e-01 8.286120000000000374e+00 1.713999999999999968e+00 5.565999999999999837e+00 3.067610000000000170e+00 8.607299999999999951e-01 5.596770000000000245e+00 8.330439999999999401e+00 6.908170000000000144e+00 4.066799999999999859e-01 2.882649999999999935e+00 5.849179999999999602e+00 4.293899999999999939e-01 8.142720000000000624e+00 7.087469999999999715e+00 5.657949999999999591e+00 3.019930000000000003e+00 5.871800000000000352e+00 5.401290000000000369e+00 8.360659999999999314e+00 2.190030000000000143e+00 2.607660000000000089e+00 3.803199999999999914e-01 1.331150000000000055e+00 2.533380000000000187e+00 5.478760000000000296e+00 2.281089999999999840e+00 7.735479999999999912e+00 4.313400000000000012e-01 1.284100000000000019e+00 7.632760000000000211e+00 5.560220000000000162e+00 7.231989999999999696e+00 2.642380000000000173e+00 4.790499999999999758e-01 6.558110000000000106e+00 2.603740000000000165e+00 5.581159999999999677e+00 7.324309999999999654e+00 7.810330000000000439e+00 3.833799999999999986e-01 6.424599999999999866e+00 7.743070000000000341e+00 5.703350000000000364e+00 4.208300000000000374e+00 1.027036999999999978e+01 5.109289999999999665e+00 3.363379999999999814e+00 1.906000000000000055e-02 1.037767000000000017e+01 4.294609999999999594e+00 5.228159999999999918e+00 5.238159999999999705e+00 5.124590000000000423e+00 5.234040000000000248e+00 8.309999999999999332e-02 -8.455599999999999783e-01 1.656900000000000039e-01 5.292329999999999757e+00 1.008755999999999986e+01 1.999599999999999989e-01 1.030000000000000013e-02 -8.654699999999999616e-01 5.238769999999999705e+00 5.379380000000000273e+00 1.018656000000000006e+01 5.326170000000000293e+00 1.824999999999999886e-02 3.561380000000000212e+00 4.530459999999999710e+00 3.444890000000000008e+00 2.438639999999999919e+00 4.400660000000000238e+00 8.694789999999999353e+00 3.645379999999999843e+00 9.972350000000000492e+00 3.008999999999999897e+00 2.757789999999999964e+00 9.749140000000000583e+00 8.410040000000000404e+00 8.550369999999999138e+00 4.398039999999999949e+00 3.407620000000000093e+00 7.575330000000000119e+00 4.347900000000000098e+00 8.807600000000000762e+00 8.335720000000000240e+00 9.461629999999999541e+00 3.470369999999999955e+00 7.698220000000000063e+00 9.722789999999999822e+00 8.658160000000000522e+00 2.743110000000000159e+00 2.114840000000000053e+00 2.306989999999999874e+00 2.137529999999999930e+00 1.976259999999999906e+00 7.479110000000000369e+00 2.915659999999999918e+00 7.144090000000000273e+00 2.361489999999999867e+00 1.922970000000000068e+00 7.209329999999999572e+00 7.583479999999999777e+00 8.235789999999999722e+00 1.793150000000000022e+00 2.305419999999999803e+00 7.272639999999999993e+00 1.651370000000000005e+00 7.466160000000000352e+00 8.073610000000000397e+00 7.110699999999999577e+00 2.130889999999999951e+00 7.076789999999999914e+00 7.111889999999999823e+00 7.463949999999999640e+00 2.432620000000000005e+00 1.040000000000000036e+00 4.901939999999999742e+00 1.625839999999999952e+00 1.078680000000000083e+00 1.021587000000000067e+01 2.366859999999999964e+00 6.045740000000000336e+00 4.869100000000000428e+00 1.666069999999999940e+00 6.376310000000000144e+00 1.006567000000000078e+01 7.708619999999999806e+00 1.202210000000000001e+00 4.823059999999999903e+00 6.505630000000000024e+00 8.973200000000000065e-01 1.037806999999999924e+01 7.745140000000000136e+00 6.371220000000000105e+00 5.017619999999999969e+00 6.686519999999999797e+00 6.312829999999999941e+00 1.001837000000000089e+01 3.892199999999999882e+00 3.810140000000000082e+00 7.340100000000000513e-01 3.036929999999999907e+00 3.804100000000000037e+00 6.016740000000000421e+00 4.054479999999999862e+00 8.783179999999999765e+00 5.905700000000000394e-01 2.923740000000000006e+00 8.805529999999999191e+00 5.674559999999999604e+00 8.874119999999999564e+00 3.739759999999999973e+00 8.438600000000000545e-01 8.086890000000000356e+00 3.992430000000000145e+00 6.112540000000000084e+00 9.178359999999999630e+00 8.795130000000000337e+00 6.649100000000000010e-01 8.166800000000000281e+00 8.889720000000000510e+00 6.111600000000000144e+00 1.452799999999999925e-01 1.602600000000000025e+00 4.006739999999999746e+00 -6.674099999999999477e-01 1.521500000000000075e+00 9.396679999999999922e+00 2.265999999999999959e-02 6.741419999999999746e+00 4.022490000000000343e+00 -7.589099999999999735e-01 6.549409999999999954e+00 9.210679999999999978e+00 5.316410000000000302e+00 1.708460000000000090e+00 3.982779999999999987e+00 4.329130000000000145e+00 1.547979999999999912e+00 9.189830000000000609e+00 5.257929999999999993e+00 6.772350000000000314e+00 3.997840000000000060e+00 1.085679999999999978e+00 4.195649999999999658e+00 1.562789999999999901e+00 1.913600000000000023e-01 4.098930000000000184e+00 6.953570000000000029e+00 1.113369999999999971e+00 9.256959999999999411e+00 1.803449999999999998e+00 2.464699999999999946e-01 9.470560000000000755e+00 6.885989999999999611e+00 6.138639999999999652e+00 4.183419999999999916e+00 1.792040000000000077e+00 5.257279999999999731e+00 4.174419999999999575e+00 6.901419999999999888e+00 6.173739999999999561e+00 9.373179999999999623e+00 1.561190000000000078e+00 5.295329999999999870e+00 9.223250000000000171e+00 6.699390000000000178e+00 7.866600000000000259e-01 4.090639999999999610e+00 4.247419999999999973e+00 -1.327800000000000091e-01 4.161450000000000315e+00 9.580420000000000158e+00 6.930100000000000149e-01 9.254739999999999966e+00 4.372810000000000308e+00 -4.075999999999999762e-02 9.244899999999999451e+00 9.476779999999999760e+00 5.954019999999999868e+00 4.162679999999999936e+00 4.261750000000000149e+00 4.862980000000000302e+00 4.038560000000000372e+00 9.573800000000000310e+00 5.818909999999999805e+00 9.309329999999999217e+00 4.259629999999999583e+00 4.809689999999999799e+00 9.299970000000000070e+00 9.515599999999999170e+00 5.646900000000000253e-01 1.520569999999999977e+00 1.384509999999999907e+00 -2.571800000000000197e-01 1.612319999999999975e+00 6.561679999999999957e+00 4.451800000000000201e-01 6.797690000000000232e+00 1.146749999999999936e+00 -1.807300000000000018e-01 6.669299999999999784e+00 6.614559999999999995e+00 5.567599999999999660e+00 1.484909999999999952e+00 1.340209999999999901e+00 4.815710000000000157e+00 1.461209999999999898e+00 6.769230000000000302e+00 5.731200000000000294e+00 6.849070000000000213e+00 1.282489999999999908e+00 4.787749999999999950e+00 6.598119999999999763e+00 6.602710000000000079e+00