-2.384738885408840936e+00 -2.531381619630844515e+00 6.238734897973609250e+00 -2.531381619630844515e+00 -1.062773846146605372e+01 -2.568960023112028868e+00 6.238734897973609250e+00 -2.568960023112028868e+00 -2.140764379651259652e+00
3.095071974517436472e-02 3.216885622719764193e+00 6.004510929158033861e+00 3.216885622719764193e+00 -9.365783335006000243e+00 -1.255817789061572709e+00 6.004510929158033861e+00 -1.255817789061572709e+00 3.261775217632369550e+00
3.330670319652687539e+01 3.096400017383952985e+00 6.616845025522116508e+00 3.096400017383952985e+00 2.463215306849870245e+01 -1.482858702821190366e+00 6.616845025522116508e+00 -1.482858702821190366e+00 3.788854566637103005e+01
3.092677045935902669e+01 1.893769961073231922e+00 9.630310109943039265e+00 1.893769961073231922e+00 3.545077686069783596e+01 6.918953783240754163e+00 9.630310109943039265e+00 6.918953783240754163e+00 4.754720049781216318e+01
-7.542732017459461424e+00 -2.519886305011161287e+00 5.939886115985801851e-01 -2.519886305011161287e+00 -1.108322862801973940e+01 2.933399412035400999e+00 5.939886115985801851e-01 2.933399412035400999e+00 -3.377934518764482696e+00
1.169744868718874820e+01 1.207213880450698085e+01 3.610161543086261915e+00 1.207213880450698085e+01 -1.168081504987323438e+00 -1.405493741514478678e+01 3.610161543086261915e+00 -1.405493741514478678e+01 2.063623574948907091e+01
-1.441074779008621931e+01 -2.782196159814914083e+00 2.266540355022760966e+00 -2.782196159814914083e+00 -1.225790262564176558e+01 -1.586742910516080254e-02 2.266540355022760966e+00 -1.586742910516080254e-02 -3.186509088316585636e+00
-4.534332678078309975e+00 -8.106650647355482242e-01 -1.637411340184439457e+00 -8.106650647355482242e-01 -1.446895914535791405e+01 -6.188422409214783260e-01 -1.637411340184439457e+00 -6.188422409214783260e-01 -2.201952835116300466e+00
-2.199833889708184387e+01 7.600087354608536794e-01 3.439868830830766999e+00 7.600087354608536794e-01 -1.311366085922047375e+01 -4.016976277066795831e+00 3.439868830830766999e+00 -4.016976277066795831e+00 -1.178781446140458122e+01
4.219532226737348424e+01 -6.443598569317553704e+00 -6.131503323344156264e+00 -6.443598569317553704e+00 5.379264575403882276e+01 1.525810346923001104e+00 -6.131503323344156264e+00 1.525810346923001104e+00 3.933061635886014074e+01
3.823905752879671383e+01 -3.490079513200293193e-01 1.055010206689566310e+01 -3.490079513200293193e-01 4.545208816435174981e+01 -3.375134136487853986e+00 1.055010206689566310e+01 -3.375134136487853986e+00 1.566476860528701565e+01
1.910730949035187587e+00 -1.396525947161640246e+01 6.381627241544213014e+00 -1.396525947161640246e+01 -9.685916708196158353e+00 1.127430768257560167e+00 6.381627241544213014e+00 1.127430768257560167e+00 -3.723600163211599590e+00
-6.784841298516987251e+00 5.478834169949460264e-01 -5.756961890000896531e+00 5.478834169949460264e-01 -5.863726541828770955e+00 5.375536503881417350e-01 -5.756961890000896531e+00 5.375536503881417350e-01 -5.323524598416693898e+00
3.024786467184167904e+01 -5.071274691149149305e+00 8.136319087127459326e+00 -5.071274691149149305e+00 7.877700600144943444e+00 1.664162847004087453e+00 8.136319087127459326e+00 1.664162847004087453e+00 2.491211505887658717e+01
2.029109018389463337e+00 8.263156015298351420e+00 2.949468129569106090e+00 8.263156015298351420e+00 6.614555479413645855e+00 -6.916532051572951367e+00 2.949468129569106090e+00 -6.916532051572951367e+00 -6.261851005997885800e+00
7.819916467657360037e+00 1.689863343245274763e+00 1.053528559577963897e+01 1.689863343245274763e+00 7.504921167053678843e+00 -2.310970542847035070e+00 1.053528559577963897e+01 -2.310970542847035070e+00 3.328232474809979191e+00
3.718375241180731194e+01 -7.205281498107343752e-02 1.300281129121716006e+00 -7.205281498107343752e-02 4.037004469570696585e+01 -5.177394137976582655e+00 1.300281129121716006e+00 -5.177394137976582655e+00 3.164794749361593418e+01
-2.032509812467793608e+01 -5.394656535476649140e+00 1.320276557178671650e+00 -5.394656535476649140e+00 -2.368053787903021146e+01 5.326337945404858054e+00 1.320276557178671650e+00 5.326337945404858054e+00 -1.491300689625807507e+01
-1.397410494509244039e+01 -9.593461348057429561e+00 1.023529628137577596e+01 -9.593461348057429561e+00 -9.153182168223422011e+00 5.928311477298452425e-01 1.023529628137577596e+01 5.928311477298452425e-01 -6.597699912497615671e+00
-2.506718295682777864e+01 -1.867638747168663960e+00 1.304575555473463933e+00 -1.867638747168663960e+00 -2.545208314758546564e+01 -1.447117403069301034e+00 1.304575555473463933e+00 -1.447117403069301034e+00 -1.558899429658397473e+01
-5.496457604084466375e+00 2.378357894679553830e+00 1.904581393294565217e+00 2.378357894679553830e+00 -2.441035592853049963e+01 1.200564351319697298e+00 1.904581393294565217e+00 1.200564351319697298e+00 6.361499328651946783e+00
3.571296343808742080e+01 7.546154480384712482e-01 6.933336276432421563e+00 7.546154480384712482e-01 3.414528735701190953e+01 -2.964221843174243531e+00 6.933336276432421563e+00 -2.964221843174243531e+00 4.037262734272803044e+01
3.657283364043306761e+01 1.390501977073956175e+00 5.658584125356024508e+00 1.390501977073956175e+00 3.732386417655343536e+01 -9.443571737408182898e+00 5.658584125356024508e+00 -9.443571737408182898e+00 4.396629871735797934e+01
-7.332464998246378762e+00 -4.690142494379834215e-01 4.969040001241129545e+00 -4.690142494379834215e-01 -9.196861048223141211e+00 -6.798495791998680815e+00 4.969040001241129545e+00 -6.798495791998680815e+00 -1.046871345373645212e+01
2.365272060249355945e+01 -1.320286823440777635e+00 1.628316036807887501e+00 -1.320286823440777635e+00 1.673954390232993106e+01 -4.378999768208153287e-01 1.628316036807887501e+00 -4.378999768208153287e-01 4.021933947672848575e+01
-8.483874243267731430e+00 -7.541529249189298234e-01 1.057348511246779671e-01 -7.541529249189298234e-01 -1.402563227727931761e+01 2.435871842877152194e+00 1.057348511246779671e-01 2.435871842877152194e+00 3.268935590744078024e+00
-8.854160373366601888e+00 -9.757864888138712445e+00 5.132968375960127894e+00 -9.757864888138712445e+00 -2.287900643469193085e+01 3.056791425881694391e+00 5.132968375960127894e+00 3.056791425881694391e+00 -3.411898635446708905e+00
-7.505366180215911065e+00 -8.828700819318984205e-01 -2.301575194464306473e-01 -8.828700819318984205e-01 -1.733339513683972655e+01 3.278543100746677652e+00 -2.301575194464306473e-01 3.278543100746677652e+00 -3.368773209460833140e+00
3.121963000520423748e+00 -5.855698221112184854e+00 1.913512151103258785e-01 -5.855698221112184854e+00 -3.099012087946743765e+00 1.205642539527452151e+00 1.913512151103258785e-01 1.205642539527452151e+00 9.832103547127267973e+00
1.472890543834666843e+01 5.277632577339934628e-01 1.878001854679557159e+00 5.277632577339934628e-01 2.879140468375147321e+01 5.060362577821105878e-01 1.878001854679557159e+00 5.060362577821105878e-01 1.632619891475793494e+01
2.171584146000351545e+00 -4.609146869644839550e-01 4.171067008593031034e+00 -4.609146869644839550e-01 -2.179013794419005556e+00 1.840163693783130272e+00 4.171067008593031034e+00 1.840163693783130272e+00 4.661445072301718895e+00
2.380262534987532153e+00 1.051165052409829315e+01 2.853560103569744211e+00 1.051165052409829315e+01 -1.315468907214298655e+00 1.447513020342814372e+00 2.853560103569744211e+00 1.447513020342814372e+00 5.553605448843374148e+00
-9.964769398345206142e+00 1.848401165046641426e+00 3.771643558675692454e+00 1.848401165046641426e+00 -5.390531622736276951e+00 -5.094518971770225502e-01 3.771643558675692454e+00 -5.094518971770225502e-01 -2.235807287905161189e+01
-7.648420986291901258e+00 -1.789617622346179882e-01 -2.855082399119203695e-01 -1.789617622346179882e-01 -6.795908388659333887e+00 2.810949055984058864e-01 -2.855082399119203695e-01 2.810949055984058864e-01 -3.461511135611770928e+00
-7.455388930489856847e+00 -6.649435412514300481e+00 6.312986030401583015e+00 -6.649435412514300481e+00 -9.366810890919174071e+00 2.534042524939308372e+00 6.312986030401583015e+00 2.534042524939308372e+00 -8.044674942292106223e+00
6.821356755162610419e+00 1.981847856718868192e-02 8.248216708696860522e+00 1.981847856718868192e-02 3.386619125318576007e+00 1.601010163099575889e+00 8.248216708696860522e+00 1.601010163099575889e+00 2.963902469518884697e+00
1.991158599340016622e+01 -2.429360246208936314e+00 2.585183376978603231e+00 -2.429360246208936314e+00 2.232912369119503637e+01 2.652712052867162829e+00 2.585183376978603231e+00 2.652712052867162829e+00 2.145225693135739320e+01
1.857495563086091650e+01 -8.680495172225395351e+00 4.090387330377032171e+00 -8.680495172225395351e+00 4.610613629220368659e-01 9.878135187693881658e-01 4.090387330377032171e+00 9.878135187693881658e-01 6.490705237893648949e+00
-9.119268548472632574e+00 -1.880992577375082964e-01 4.878837713713974344e-01 -1.880992577375082964e-01 -1.145686315751143525e+01 7.037404628558258102e-01 4.878837713713974344e-01 7.037404628558258102e-01 -1.092870361762050990e+01
-4.871723109136083529e+00 -4.502758558251934495e+00 7.330208480058892029e+00 -4.502758558251934495e+00 -4.353246794876611148e+00 -1.272827582645257083e+00 7.330208480058892029e+00 -1.272827582645257083e+00 -1.549858424993862016e+01
-1.010913354155114741e+00 -2.553429044832313366e+00 4.569368180115600531e+00 -2.553429044832313366e+00 -4.557820573115896612e-01 4.499819446085980168e+00 4.569368180115600531e+00 4.499819446085980168e+00 -5.433191756933354100e+00
-5.308283855128212991e+00 2.852154962186689846e-01 -7.017742988070185817e+00 2.852154962186689846e-01 -1.076728020733450464e+01 6.261868875102231335e+00 -7.017742988070185817e+00 6.261868875102231335e+00 3.001820551942408155e+00
-1.426093576788155382e+01 -5.795007017012826722e+00 -1.425291990321231328e+00 -5.795007017012826722e+00 -5.859148184792823066e+00 1.816145551593364438e-01 -1.425291990321231328e+00 1.816145551593364438e-01 9.185397137514496047e-01
-6.893348340850818934e-01 2.044072888469881555e+00 8.415551282507980346e-01 2.044072888469881555e+00 -9.990778895840435325e-02 5.156839701557070832e+00 8.415551282507980346e-01 5.156839701557070832e+00 -6.424051791911899123e+00
4.044061257333408577e+01 -7.520793842791800854e-02 1.339199438087470817e+01 -7.520793842791800854e-02 5.928884463450309994e+01 -1.236922550726201031e+01 1.339199438087470817e+01 -1.236922550726201031e+01 4.187210560492793121e+01
1.852668003748120285e+01 5.710558373071275007e-01 7.357458124165515478e+00 5.710558373071275007e-01 6.943820737485326688e+00 -1.525740488009538209e-01 7.357458124165515478e+00 -1.525740488009538209e-01 5.392691084027850579e+00
2.592671301260813976e+01 2.508078257226818764e+00 -5.288661609207716552e-01 2.508078257226818764e+00 1.850489495882771962e+01 -6.842680526110532790e-01 -5.288661609207716552e-01 -6.842680526110532790e-01 2.906156270472549608e+01
8.065490739636974382e+00 -8.218003578732112402e+00 -5.994956089701156676e-01 -8.218003578732112402e+00 -6.823688527333500176e+00 -4.462311156466256534e+00 -5.994956089701156676e-01 -4.462311156466256534e+00 1.278089896454957319e+01
2.960035399305621695e+01 -3.927273397597251137e+00 5.052221432997585637e+00 -3.927273397597251137e+00 4.112423351662340565e+01 -2.127874275238911483e+00 5.052221432997585637e+00 -2.127874275238911483e+00 3.660895022031530743e+01
6.927867291885984047e-01 5.116790676113572189e+00 5.596086349200644072e+00 5.116790676113572189e+00 -1.005804299148425152e+01 -4.387265852133165112e+00 5.596086349200644072e+00 -4.387265852133165112e+00 -2.846452151897464061e-02
