-5.639840000000000408e-01 -2.636232999999999826e+00 -2.457411000000000012e+00 1.408849000000000018e+00 -2.268778000000000183e+00 -7.891979999999999551e-01 -2.092302999999999802e+00 2.448383000000000198e+00 4.400094000000000172e+00 1.381901999999999964e+00 -9.409680000000000266e-01 -1.415040000000000076e+00 1.492841000000000085e+00 -1.207395999999999914e+00 2.058964000000000016e+00 -1.810526000000000080e+00 -3.854630000000000001e-01 3.359899999999999692e-02 5.537490000000000467e-01 -1.809487000000000068e+00 3.054753999999999969e+00 -3.377577000000000051e+00 3.144370000000000220e-01 -2.088401999999999870e+00 5.052569999999999562e-01 -1.640981000000000023e+00 2.259050999999999920e+00 2.360085000000000210e+00 7.268369999999999553e-01 1.938755000000000006e+00 -1.209159000000000095e+00 2.728670000000000151e+00 1.217834000000000083e+00 1.072842999999999991e+00 1.188261000000000012e+00 2.542222000000000204e+00 4.981380000000000252e-01 -1.205403000000000002e+00 2.417367000000000044e+00 -1.328117999999999910e+00 1.938819000000000070e+00 -4.817890000000000228e-01 -6.163030000000000452e-01 -6.375619999999999621e-01 3.600169000000000175e+00 -1.400524000000000102e+00 3.886375000000000135e+00 6.040170000000000261e-01 1.787714000000000025e+00 1.181567999999999952e+00 -1.899623000000000062e+00 -2.503826000000000107e+00 -2.474911000000000083e+00 1.294567999999999941e+00 -5.804354000000000013e+00 4.838912999999999798e+00 -3.232155000000000111e+00 1.404158000000000017e+00 5.141416000000000430e+00 -1.949610000000000065e+00 -2.476752999999999982e+00 -2.345918000000000170e+00 -9.763671999999999684e+00 -9.270890000000000519e-01 -1.645496999999999987e+00 1.141516999999999893e+00 2.306725999999999832e+00 -1.993918000000000079e+00 -2.971848000000000045e+00 -2.490489999999999926e-01 -3.401727999999999863e+00 2.705344000000000193e+00 1.217816000000000010e+00 -5.756850000000000023e-01 -1.565511000000000097e+00 2.775704999999999867e+00 1.273425000000000029e+00 2.049288000000000221e+00 1.508999999999999925e-03 1.508302000000000032e+00 2.100743000000000027e+00 -3.196819000000000077e+00 -1.827067999999999914e+00 -2.712459999999999871e-01 7.849800000000000111e-01 4.050037999999999805e+00 -3.319352999999999998e+00 1.160341000000000067e+00 2.043839999999999879e+00 2.169811999999999852e+00 5.012501000000000317e+00 8.521199999999999608e-02 5.781999999999999813e-03 4.219479999999999897e-01 1.367880999999999903e+00 -4.833759999999999724e-01 -6.512270000000000003e-01 2.580757999999999885e+00 -1.906360000000000054e+00 9.455019999999999536e-01 -1.366225999999999940e+00 6.240699999999999720e-02 -2.009393999999999902e+00 -7.414979999999999905e-01 2.425673999999999886e+00 5.990499999999999992e-02 -1.287670000000000092e+00 6.523099999999999732e-02 3.016748999999999903e+00 5.556360000000000188e-01 -1.241592000000000029e+00 1.353204000000000073e+00 -7.501750000000000362e-01 -2.308244000000000185e+00 2.051949999999999885e-01 -2.343614999999999782e+00 1.489389999999999881e-01 2.135390999999999817e+00 1.689489999999999936e+00 2.938100000000000156e-01 5.746595000000000120e+00 -2.498552999999999802e+00 2.935179000000000205e+00 2.452824999999999811e+00 7.841040000000000232e-01 -3.559115999999999946e+00 5.421939999999999538e-01 1.784033999999999898e+00 1.169745999999999952e+00 1.421896999999999966e+00 -3.200620000000000132e-01 2.018790000000000029e-01 4.042649999999999855e-01 -1.357541000000000109e+00 -1.326818000000000053e+00 9.743770000000000486e-01 8.513500000000000234e-02 7.396599999999999842e-01 2.412390000000000090e-01 -1.923050000000000037e-01 2.082380000000000064e-01 9.702500000000000013e-02 -2.903429000000000038e+00 -3.389206999999999859e+00 -3.389768999999999810e+00 1.216420999999999975e+00 3.437022999999999939e+00 -5.832869999999999999e-01 -5.356689999999999507e-01 -1.115793999999999953e+00 -2.314205999999999985e+00 -1.676366000000000023e+00 -5.643939999999999513e-01 1.565760000000000041e+00 2.355675000000000185e+00 1.441375999999999991e+00 7.090589999999999948e-01 1.044972000000000012e+00 2.190880000000000050e-01 2.447105999999999781e+00 6.561699999999999477e-02 9.174879999999999702e-01 -1.207222000000000017e+00 -7.371440000000000214e-01 -2.864593999999999863e+00 7.825900000000000079e-01 2.109002999999999961e+00 -1.468013999999999930e+00 -1.760118999999999989e+00 -8.717449999999999921e-01 -2.224906999999999968e+00 -3.350730000000000097e-01 1.249184000000000072e+00 2.189351999999999965e+00 2.728488000000000024e+00 -3.424290000000000056e+00 5.311890000000000001e+00 1.845353000000000021e+00 -1.695497999999999950e+00 -3.223129000000000133e+00 -5.473956000000000266e+00 2.854452000000000211e+00 5.241202000000000361e+00 3.022060000000000191e+00 -3.539452999999999960e+00 1.708042000000000060e+00 2.073440000000000005e-01 8.793499999999999650e-01 -1.299860999999999933e+00 9.945990000000000109e-01 -4.410399999999999737e-02 -1.408279000000000059e+00 -2.848965999999999887e+00 -1.899500000000000077e-01 -7.198649999999999771e-01 -3.719196999999999864e+00 -6.009059999999999846e+00 4.926248000000000182e+00 1.142800999999999956e+00 -2.175700000000000134e-01 -7.821329999999999671e-01 -1.485365000000000046e+00 2.788361999999999785e+00 1.454425000000000079e+00 2.037249000000000088e+00 -2.431707999999999981e+00 -1.907926000000000011e+00 -1.093401000000000067e+00 -3.640490000000000115e-01 -1.270348999999999950e+00 -8.352650000000000352e-01 -5.981760000000000410e-01 -8.655770000000000408e-01 1.951975000000000016e+00 2.972614999999999785e+00 8.511619999999999742e-01 -2.341213000000000211e+00 -1.125437999999999938e+00 -2.663635999999999893e+00 2.137243999999999922e+00 1.925785000000000080e+00 1.739988000000000090e+00 2.317390000000000005e-01 -2.013600000000000112e-01 2.246808000000000138e+00 4.009279000000000259e+00 -2.428224999999999856e+00 2.369420999999999999e+00 -1.094319000000000042e+00 -1.387747000000000064e+00 1.347407000000000021e+00 -1.067965000000000053e+00 1.940800999999999998e+00 -9.015649999999999498e-01 -2.105179000000000133e+00 -2.532697000000000198e+00 -4.740590000000000082e-01 4.252999999999999836e-02 1.807830999999999966e+00 -1.743687999999999905e+00 -2.120417000000000218e+00 2.170838999999999963e+00 -2.287614000000000036e+00 -1.353250999999999982e+00 9.509309999999999707e-01 1.936290000000000067e+00 -6.354500000000000426e-02 -5.429380000000000317e-01 -3.212871999999999950e+00 -1.664887000000000006e+00 3.008900000000000116e-02 -1.131515000000000049e+00 -1.185340000000000060e+00 2.606510000000000216e-01 -2.877399999999999958e-01 3.254460000000000131e-01 -5.002090000000000147e-01 1.206903000000000059e+00 9.204900000000000304e-01 -3.813159999999999883e-01 1.035435000000000105e+00 8.866199999999999637e-01 1.639912999999999954e+00 -8.202270000000000394e-01 -9.130499999999999727e-02 5.531989999999999963e-01 -3.041987999999999914e+00 4.002399999999999708e-02 -7.783419999999999783e-01 2.168779999999999930e+00 1.531549000000000049e+00 -9.994220000000000326e-01 1.098160000000000025e+00 -1.327464999999999895e+00 4.111429999999999807e-01 -2.369022000000000183e+00 -3.313365000000000116e+00 2.132728999999999875e+00 -3.022316000000000003e+00 -2.793449999999999989e+00 7.114800000000000291e-02 -2.135222999999999871e+00 4.818000000000000060e-01 3.383039999999999936e-01 3.534730000000000150e+00
1.387563000000000102e+00 2.275577000000000183e+00 3.350452999999999903e+00 -3.825689999999999924e-01 1.254760000000000097e+00 -3.026635000000000186e+00 -3.226898999999999962e+00 2.157147000000000148e+00 5.787619999999999987e-01 -6.218879999999999963e-01 1.016103999999999896e+00 1.613893999999999940e+00 -1.039879999999999916e+00 -7.093279999999999585e-01 1.278626000000000040e+00 -3.949101999999999890e+00 1.290394000000000041e+00 -1.991767000000000065e+00 -2.163762000000000185e+00 -2.565029999999999810e-01 2.144944000000000184e+00 -2.269699999999999843e-02 2.133464000000000027e+00 -4.167200000000000071e-02 -1.003849999999999909e+00 -2.335309999999999886e-01 1.437049000000000021e+00 -2.596203000000000038e+00 2.906960000000000099e-01 -3.172030000000000127e-01 -3.914469999999999894e-01 -1.478722000000000092e+00 2.141248000000000040e+00 -3.157191000000000081e+00 8.890759999999999774e-01 2.672708999999999779e+00 5.856010000000000382e-01 1.323876999999999970e+00 -4.167959999999999998e-01 -1.289897000000000071e+00 -2.457234999999999836e+00 -2.336314999999999920e+00 3.505686999999999998e+00 4.607069999999999776e-01 -9.285160000000000080e-01 1.257154000000000105e+00 -4.202004999999999768e+00 5.830109999999999459e-01 -1.090495999999999910e+00 4.690360000000000085e-01 1.233319999999999972e+00 2.727721999999999980e+00 5.252200000000000202e+00 8.333139999999999992e-01 4.221889999999999810e-01 -1.579371999999999998e+00 -2.872040999999999844e+00 1.529565000000000063e+00 -2.907166000000000139e+00 -4.747772999999999577e+00 -1.412368999999999986e+00 1.865787000000000084e+00 -1.728444000000000091e+00 -3.828259999999999996e-01 5.867809999999999970e-01 5.063969999999999860e-01 1.000987999999999989e+00 3.616699999999999776e-02 -1.608327999999999980e+00 -7.157620000000000093e-01 -3.787010000000000098e-01 -4.018249999999999877e-01 -3.438950999999999869e+00 8.559120000000000061e-01 -2.129961999999999911e+00 8.103669999999999485e-01 -1.488329000000000013e+00 -7.205460000000000198e-01 -6.315300000000000080e-02 -1.904616000000000087e+00 1.334032000000000107e+00 2.565419999999999923e-01 4.386289999999999911e-01 5.996709999999999541e-01 1.992550000000000043e+00 -2.504888999999999921e+00 7.871989999999999821e-01 1.451205999999999996e+00 1.361529999999999907e+00 -1.992216999999999905e+00 -1.168363999999999958e+00 -1.334159000000000095e+00 4.805119999999999947e-01 -1.720730000000000093e+00 2.772672000000000025e+00 -2.030438000000000187e+00 -9.169739999999999558e-01 1.035819999999999935e-01 1.840567000000000064e+00 2.645542999999999978e+00 -5.525815999999999839e+00 1.947508000000000017e+00 3.146900000000000253e-01 3.090600000000000014e-01 -3.946700000000000208e-02 8.036349999999999882e-01 -6.718250000000000055e-01 9.269399999999999862e-01 2.156076999999999799e+00 -2.629132999999999942e+00 4.433137999999999579e+00 -5.228650000000000242e-01 -5.336499999999999577e-01 -2.929430000000000089e-01 -1.730655999999999972e+00 -2.434669999999999890e-01 1.815487000000000073e+00 9.453139999999999876e-01 -4.805420000000000247e-01 6.521550000000000402e-01 -2.171175999999999995e+00 2.366051999999999822e+00 6.778750000000000053e-01 1.644706999999999919e+00 1.160714000000000024e+00 3.810910000000000131e-01 7.437340000000000062e-01 1.881458999999999993e+00 -9.284989999999999633e-01 -1.824532000000000043e+00 -1.035390000000000033e+00 -3.356181999999999999e+00 -3.288470000000000004e-01 7.401360000000000161e-01 4.240430000000000033e-01 2.523016999999999843e+00 1.185019999999999962e+00 -9.934749999999999970e-01 -1.328357999999999928e+00 -8.275029999999999886e-01 1.640210000000000001e-01 1.488099999999999978e-01 -2.774172000000000082e+00 -1.458800000000000097e-01 7.625229999999999508e-01 6.333109999999999573e-01 1.635918999999999901e+00 -6.929419999999999469e-01 9.077110000000000456e-01 -4.147839999999999860e-01 1.827984999999999971e+00 2.036372000000000071e+00 3.588830000000000076e-01 -1.367375000000000007e+00 -4.102450000000000263e-01 9.156799999999999662e-02 2.420899999999999996e-01 8.510619999999999852e-01 1.798926999999999943e+00 1.202231000000000050e+00 -3.340739999999999821e-01 -4.454830000000000179e-01 2.576868000000000158e+00 1.060502999999999973e+00 1.846039999999999903e+00 1.353291999999999939e+00 -1.750771000000000077e+00 -6.891129999999999756e-01 -1.155459000000000014e+00 -1.223926999999999987e+00 -1.242682999999999982e+00 -9.688879999999999715e-01 -6.801979999999999693e-01 3.030140000000000056e-01 -2.301915000000000155e+00 -1.760299999999999920e-01 -1.508772000000000002e+00 1.981179999999999886e-01 -2.875666999999999973e+00 1.323989999999999889e-01 -8.822619999999999907e-01 -1.429796999999999985e+00 9.575110000000000010e-01 1.160636000000000001e+00 1.409105999999999970e+00 -2.732359999999999900e+00 1.610929999999999862e-01 1.848511000000000015e+00 1.088865999999999890e+00 -1.309250000000000136e-01 -5.853770000000000362e-01 2.731056999999999846e+00 -2.119603000000000126e+00 -2.248343999999999898e+00 -2.598316000000000070e+00 1.327288999999999941e+00 1.468720000000000026e+00 1.398119999999999918e-01 -1.221980999999999984e+00 1.970064000000000037e+00 3.877800000000000136e-01 3.329889999999999795e-01 1.093260000000000065e-01 4.502499999999999836e-01 3.850423999999999847e+00 -1.863617000000000079e+00 4.943209000000000408e+00 1.611907999999999896e+00 5.671395000000000408e+00 -1.790596999999999994e+00 9.527809999999999890e-01 -6.775170000000000359e-01 2.120617000000000196e+00 5.241569999999999840e-01 -1.545099999999999918e+00 -6.552609999999999824e-01 -9.366120000000000001e-01 -1.675027000000000044e+00 2.599659999999999749e-01 -2.894670000000000076e+00 3.448730999999999991e+00 2.690834999999999866e+00 2.827716000000000118e+00 -2.544306000000000179e+00 -3.584427999999999948e+00 2.214392999999999834e+00 -1.511384999999999978e+00 2.195580000000000032e-01 1.798294000000000059e+00 -6.381390000000000118e-01 9.051249999999999574e-01 -1.198349999999999971e-01 -3.015579999999999927e-01 -2.320099999999999940e-02 2.404748999999999803e+00 2.666293000000000024e+00 -1.977679999999999993e-01 3.142510999999999832e+00 -1.509430999999999967e+00 -9.932790000000000230e-01 3.941589999999999816e-01 -1.241678999999999977e+00 2.245617000000000196e+00 2.173878999999999895e+00 5.156969999999999610e-01 -4.098199999999999760e-02 3.877300000000000191e-01 2.800739999999999896e-01 -8.166259999999999630e-01 -2.327779000000000043e+00 1.255068999999999990e+00 -1.301399999999999890e+00 4.697500000000000286e-02 4.191710000000000158e-01 -1.074451999999999963e+00 -3.167644000000000126e+00 -7.191049999999999942e-01 3.343580000000000219e+00 1.262753999999999932e+00 1.052905999999999898e+00 -3.221287999999999929e+00 8.043099999999999694e-01 -4.462490000000000068e-01 -9.632990000000000164e-01 5.478560000000000096e-01 -2.895859000000000183e+00 -1.309310999999999892e+00 1.131019999999999914e+00 -1.417566000000000104e+00 -3.996446000000000165e+00 3.714580000000000104e-01 1.721600000000000019e+00 2.238704999999999945e+00 -1.915799000000000030e+00 -3.292340000000000266e-01 -2.902100000000000166e-02 -6.163229999999999542e-01 8.670299999999999674e-01 -1.833236000000000088e+00 -2.450145000000000017e+00 -5.429650000000000309e-01 6.044929999999999470e-01 -2.513247999999999927e+00 3.060030999999999946e+00 -1.822665999999999897e+00
7.162469999999999670e-01 -2.118923999999999808e+00 6.675999999999999643e-03 -1.094840000000000035e+00 -1.828119000000000050e+00 -3.392897000000000052e+00 3.735695999999999906e+00 -5.129773000000000138e+00 4.518030000000000102e-01 4.794847999999999999e+00 5.831038000000000388e+00 1.306262000000000034e+00 -1.452371999999999996e+00 -2.373736000000000068e+00 6.109040000000000026e-01 -1.509058000000000010e+00 -3.187699999999999978e+00 -1.076338999999999935e+00 5.081427999999999834e+00 2.175536000000000136e+00 -2.162548999999999833e+00 -3.929771000000000125e+00 -2.804729000000000028e+00 1.290716999999999892e+00 1.202089999999999964e-01 1.576278000000000068e+00 1.053398999999999974e+00 3.403594000000000008e+00 6.207582000000000377e+00 2.976601000000000052e+00 2.853855999999999948e+00 -1.738976999999999995e+00 7.555129999999999901e-01 2.684613000000000138e+00 1.658277999999999919e+00 -4.699432999999999971e+00 -7.420000000000000207e-02 1.700538000000000105e+00 -2.718811000000000089e+00 2.795888999999999847e+00 -3.156829999999999914e-01 -1.690962999999999994e+00 -1.056796000000000069e+00 -3.285830000000000140e-01 8.669820000000000304e-01 -6.683517000000000152e+00 3.077940000000000120e-01 4.663919999999999733e-01 1.117340000000000000e-01 -1.262999999999999901e+00 1.077844000000000024e+00 6.634090000000000265e-01 8.599989999999999579e-01 -4.211700000000000166e-02 -1.048319999999999919e+00 2.568130000000000135e-01 1.247371000000000008e+00 -1.074961999999999973e+00 -1.134192000000000089e+00 1.999203000000000063e+00 9.555810000000000137e-01 -3.118770000000000153e-01 8.051400000000000223e-02 4.258674000000000071e+00 -7.565895000000000259e+00 8.970559999999999645e-01 8.298119999999999941e-01 1.537349999999999994e+00 -6.659900000000000542e-02 1.017771999999999899e+00 1.003120000000000012e+00 2.843888999999999889e+00 -4.258399999999999685e-02 2.380411000000000055e+00 1.279784000000000033e+00 -9.277910000000000323e-01 -4.247325000000000017e+00 -6.606099999999999473e-02 1.795925999999999911e+00 -1.345693999999999946e+00 -6.356410000000000116e-01 -1.260661000000000032e+00 4.273706999999999923e+00 -3.784632999999999914e+00 -3.513342000000000187e+00 -1.732988999999999891e+00 -4.820931999999999995e+00 2.972531000000000034e+00 1.902093000000000034e+00 2.759532000000000096e+00 2.408192000000000110e+00 -2.413311000000000206e+00 -1.681256000000000084e+00 -5.999062999999999590e+00 4.211829999999999963e+00 7.240140000000000464e-01 1.453109999999999957e-01 2.657000000000000074e-03 -4.556760000000000255e-01 1.217168999999999945e+00 6.479129999999999612e-01 -1.593420000000000114e-01 1.206115999999999966e+00 1.047317000000000053e+00 9.667050000000000365e-01 -9.561429999999999652e-01 -1.289870000000000072e+00 -4.288648000000000238e+00 1.386619000000000046e+00 2.406588000000000171e+00 -1.043484000000000078e+00 -9.347830000000000306e-01 -4.072660000000000169e-01 1.168422999999999989e+00 -3.738870000000000249e-01 -3.509069999999999911e+00 -1.179534000000000082e+00 -3.014447000000000099e+00 -1.275099999999999900e+00 -1.855564999999999909e+00 2.426220000000000043e-01 -6.191640000000000477e-01 -9.138370000000000104e-01 -4.255700000000000038e-01 -8.124699999999999978e-02 5.688560000000000283e-01 -1.297630000000000061e+00 1.796114999999999906e+00 8.227449999999999486e-01 1.256966000000000028e+00 1.154528999999999916e+00 -8.863969999999999905e-01 4.141977999999999938e+00 1.344341000000000008e+00 3.497821000000000069e+00 1.773868000000000000e+00 2.152095000000000091e+00 4.557499999999999746e-02 -1.467189000000000076e+00 -4.462269999999999848e-01 -4.224759999999999849e+00 -1.932570000000000121e-01 2.569275999999999893e+00 1.742092999999999892e+00 2.763341000000000047e+00 -2.621509999999999785e+00 -3.749580000000000135e-01 -1.041855999999999893e+00 1.130440000000000056e-01 -1.985889999999999933e+00 5.243139999999999468e-01 -4.593039999999999901e-01 8.315439999999999499e-01 -7.592649999999999677e-01 1.616214999999999957e+00 -2.078494000000000064e+00 -3.545644999999999936e+00 1.421049999999999924e+00 1.271649000000000029e+00 1.603556999999999899e+00 1.210890000000000022e-01 1.115037999999999974e+00 -2.383894999999999875e+00 -3.950969000000000175e+00 2.708984000000000059e+00 6.136549999999999505e-01 1.647297999999999929e+00 -8.206290000000000529e-01 -2.092982000000000120e+00 3.343309999999999893e-01 -7.243709999999999871e-01 -6.172509999999999941e-01 1.035279999999999978e+00 1.177661000000000069e+00 4.008410000000000029e-01 -1.267300000000000093e-01 -1.030704000000000065e+00 -2.639991000000000199e+00 -1.070373000000000019e+00 1.536281000000000008e+00 -1.451554999999999929e+00 5.852669999999999817e-01 -1.359294999999999920e+00 -8.856530000000000236e-01 2.488220000000000098e+00 -2.523547999999999902e+00 1.415270000000000028e+00 -2.201518999999999782e+00 2.934213999999999878e+00 -7.171769999999999534e-01 -1.009499999999999981e-01 -6.254520000000000080e-01 -2.337085000000000079e+00 1.378414999999999946e+00 1.649154000000000009e+00 -6.410630000000000495e-01 -1.373783999999999894e+00 1.696250999999999953e+00 1.168939999999999979e-01 -3.216640000000000055e-01 -8.700999999999999845e-01 1.549198999999999993e+00 -1.476167999999999925e+00 1.665831999999999979e+00 -1.937707999999999986e+00 3.298166000000000153e+00 -2.093354000000000159e+00 -2.678711999999999982e+00 -7.213870000000000005e-01 2.055629999999999957e-01 6.587579999999999547e-01 9.292489999999999917e-01 1.066340000000000066e+00 3.224498000000000086e+00 -3.205753000000000075e+00 7.467510000000000536e-01 -1.528348000000000040e+00 -4.343250000000000277e+00 -3.359268000000000143e+00 -9.733070000000000332e-01 -1.049800000000000039e-01 1.939141000000000004e+00 2.686799999999999744e-01 1.835064999999999946e+00 2.746936999999999962e+00 1.980449999999999988e-01 2.331942000000000181e+00 -2.355700000000000127e+00 -7.558669999999999556e-01 -4.817069999999999963e-01 2.369111000000000189e+00 -3.449090000000000211e-01 -1.937409999999999966e-01 2.446330000000000116e+00 2.961075000000000124e+00 -4.429376000000000424e+00 -9.469030000000000502e-01 -4.332509999999999972e-01 -4.217940000000000023e-01 2.105007000000000073e+00 1.769095000000000084e+00 2.106578999999999979e+00 4.021193000000000239e+00 4.317570000000000019e-01 2.261799999999999922e-02 -4.335910000000000153e+00 6.744050000000000322e-01 -7.576270000000000504e-01 -1.109190000000000037e-01 -3.495632000000000073e+00 3.623177999999999788e+00 3.331916999999999796e+00 -1.985284999999999966e+00 -1.655021000000000075e+00 -1.756583999999999923e+00 1.442593999999999932e+00 -3.619580000000000020e-01 7.639550000000000507e-01 -8.511940000000000062e-01 -2.343443000000000165e+00 -2.128622000000000014e+00 -8.946239999999999748e-01 1.693392000000000008e+00 -1.751876999999999907e+00 7.676749999999999963e-01 7.807209999999999983e-01 2.424046000000000145e+00 5.300139999999999851e-01 -1.344198000000000004e+00 -6.233330000000000259e-01 -8.980000000000000204e-01 4.308400000000000007e-01 1.126900999999999931e+00 -1.548529000000000044e+00 7.399400000000000421e-02 1.160191999999999890e+00 2.282805000000000195e+00 2.813330999999999804e+00 2.164061999999999930e+00 -3.506299999999999972e-01 -7.056210000000000537e-01 3.725289999999999990e-01 -6.475340000000000540e-01 2.558793999999999791e+00 -3.381871999999999989e+00
-6.908220000000000471e-01 3.169261000000000106e+00 2.322639000000000120e+00 8.461170000000000080e-01 2.195765000000000189e+00 1.619043999999999928e+00 -7.376439999999999664e-01 6.478129999999999722e-01 4.073843000000000103e+00 3.025682000000000205e+00 -7.571039999999999992e-01 -1.946706999999999965e+00 2.984479999999999911e-01 3.757506999999999930e+00 -1.810019999999999962e-01 -3.451110000000000011e-01 2.117392000000000163e+00 -2.070491000000000081e+00 1.415766999999999998e+00 -5.604679999999999662e-01 9.624219999999999997e-01 1.378716999999999970e+00 2.904370000000000007e-01 1.646269999999999956e-01 -2.961123000000000172e+00 2.550486999999999949e+00 1.018011999999999917e+00 1.093089999999999895e+00 2.666510999999999854e+00 1.005393999999999899e+00 -1.827809000000000017e+00 -1.447084999999999955e+00 -6.886790000000000411e-01 -2.098235999999999990e+00 -8.158140000000000391e-01 4.382666000000000395e+00 -1.077690000000000037e+00 3.380924999999999958e+00 1.330600000000000012e-02 2.715099999999999736e-01 2.072700000000000098e-01 1.463609999999999911e-01 -1.220528000000000057e+00 -1.645866000000000051e+00 1.208070999999999895e+00 -4.349460999999999800e+00 -2.317128999999999994e+00 -1.806281999999999943e+00 9.838529999999999776e-01 3.215876000000000179e+00 -1.626559999999999950e-01 8.161500000000000421e-01 1.169469000000000092e+00 -1.476929999999999910e-01 -3.442718999999999863e+00 -1.432458000000000009e+00 7.068499999999999783e-01 -1.361539999999999973e+00 -6.421430000000000193e-01 -9.421249999999999902e-01 1.620794999999999986e+00 9.670800000000000229e-02 8.067379999999999551e-01 -1.001654999999999962e+00 -1.027180999999999900e+00 -3.802465000000000206e+00 8.732140000000000457e-01 2.619984999999999786e+00 -8.067069999999999519e-01 -1.380235000000000101e+00 -1.392711000000000032e+00 -5.744340000000000002e-01 -3.778942999999999941e+00 -2.444587999999999983e+00 1.159964999999999913e+00 2.203231999999999857e+00 -9.775859999999999550e-01 -1.309636000000000022e+00 7.292640000000000233e-01 1.674436000000000035e+00 1.075850000000000001e-01 2.323097999999999885e+00 -1.087221999999999911e+00 1.423075000000000090e+00 2.647330999999999879e+00 -1.382654999999999967e+00 3.946569999999999800e-01 -1.107482999999999995e+00 -3.615000000000000158e-03 -4.414040000000000186e-01 -1.941610999999999976e+00 -2.796211000000000002e+00 -3.947080000000000033e-01 7.210199999999999942e-02 1.265625000000000000e+00 1.868562000000000056e+00 -2.946534999999999904e+00 1.344565000000000010e+00 3.792689000000000199e+00 -4.301820000000000088e-01 -5.762410000000000032e-01 1.976860000000000006e-01 1.760045000000000082e+00 2.307357999999999798e+00 -1.352649999999999963e-01 3.342865000000000197e+00 1.851563000000000070e+00 -1.576748000000000038e+00 -1.437793000000000099e+00 -8.457679999999999643e-01 -1.427639000000000102e+00 -1.464606000000000074e+00 2.770349999999999757e-01 4.762609999999999899e-01 1.620762999999999954e+00 1.666754999999999987e+00 -1.915545000000000053e+00 6.410409999999999719e-01 1.313206000000000095e+00 2.002349999999999963e-01 -1.177089999999999942e-01 6.405600000000000183e-02 2.277019999999999877e-01 -7.200480000000000214e-01 -1.778968000000000105e+00 8.785809999999999453e-01 -5.175999999999999490e-01 1.019938999999999929e+00 7.682799999999999352e-02 2.977730000000000099e-01 1.414352000000000054e+00 2.424986999999999782e+00 2.070432999999999968e+00 1.368074999999999930e+00 -2.360821000000000058e+00 2.691979999999999928e-01 -4.244109999999999827e-01 7.432210000000000205e-01 -4.523019999999999818e-01 3.735149999999999859e-01 -4.689159999999999995e-01 -6.761460000000000248e-01 -1.987260999999999944e+00 3.950719999999999787e-01 4.288370000000000237e-01 -3.632259999999999933e-01 -7.328090000000000437e-01 -3.929079999999999795e-01 -1.810944000000000109e+00 -6.929180000000000339e-01 8.307219999999999605e-01 1.532090000000000118e-01 -1.270966000000000040e+00 4.588459999999999761e-01 -2.245590000000000086e-01 3.713009999999999922e-01 -3.118608000000000047e+00 -1.031811000000000034e+00 2.527121999999999868e+00 3.337169999999999859e-01 -5.418250000000000011e-01 -9.758189999999999920e-01 -2.496640999999999888e+00 -1.179116000000000053e+00 3.492267000000000010e+00 1.606170000000000098e-01 -4.099205000000000432e+00 -5.145006999999999664e+00 2.035362000000000116e+00 -2.684797000000000100e+00 -1.329833999999999961e+00 -3.096820000000000128e-01 -7.801979999999999471e-01 1.011474999999999902e+00 -5.284809999999999786e-01 8.203489999999999949e-01 6.543139999999999512e-01 1.701792999999999889e+00 1.229737000000000080e+00 2.518423999999999996e+00 -7.959110000000000351e-01 5.149299999999999711e-02 -1.130077999999999916e+00 -1.304832999999999910e+00 -5.119240000000000457e-01 7.287059999999999649e-01 -2.808629999999999738e-01 -1.012709000000000081e+00 -7.584300000000000486e-01 5.839039999999999786e-01 -1.643299999999999969e-02 3.500679999999999903e-01 9.584150000000000169e-01 -2.038437000000000054e+00 -2.744159999999999933e-01 7.282330000000000192e-01 7.522729999999999695e-01 1.137459999999999999e-01 -2.579759999999999831e-01 5.806930000000000147e-01 -1.376200000000000090e+00 -2.617745000000000211e+00 -6.689129999999999798e-01 -2.091931999999999903e+00 4.772499999999999659e-02 -3.250342999999999982e+00 4.994080000000000186e-01 1.230722000000000094e+00 -4.389270000000000116e-01 -2.697776000000000174e+00 -2.076245000000000118e+00 4.990459999999999896e-01 1.531792000000000042e+00 -7.038539999999999797e-01 8.488679999999999559e-01 5.108660000000000423e-01 -1.870025000000000048e+00 5.055610000000000381e-01 -1.515042000000000000e+00 1.257141999999999982e+00 1.680460999999999983e+00 6.504609999999999559e-01 2.401861999999999941e+00 -6.818309999999999649e-01 1.068432000000000048e+00 2.787958000000000158e+00 -7.089700000000000168e-02 -3.419721000000000011e+00 8.787439999999999696e-01 -1.270801000000000069e+00 6.866240000000000121e-01 2.987995999999999874e+00 2.229023999999999894e+00 -1.875463000000000102e+00 2.246000000000000166e-03 -3.771840000000000193e-01 3.026929999999999898e-01 1.739554999999999962e+00 -2.514266000000000112e+00 4.960829999999999962e-01 -3.619089999999999807e-01 -9.542939999999999756e-01 5.672019999999999840e-01 5.064060000000000228e-01 6.529650000000000176e-01 -6.805189999999999850e-01 -9.848259999999999792e-01 5.060459999999999958e-01 -1.745680000000000009e-01 6.295479999999999965e-01 -2.895829999999999793e-01 -8.928599999999999870e-01 1.501743999999999968e+00 2.131422000000000150e+00 1.106456000000000106e+00 -8.392460000000000475e-01 2.040242999999999807e+00 1.758567999999999909e+00 1.292067000000000077e+00 -9.626320000000000432e-01 4.859049999999999758e-01 -4.002390000000000114e-01 -2.437196999999999836e+00 -3.359529999999999905e+00 7.860319999999999530e-01 -1.562500999999999918e+00 -4.966860000000000164e-01 1.316507000000000094e+00 -1.001650000000000040e-01 -1.551649000000000056e+00 -1.093590000000000062e+00 2.336300000000000043e-01 1.807719999999999883e-01 1.352886000000000033e+00 2.759039999999999826e-01 -4.182420000000000027e-01 -6.264880000000000448e-01 1.895260000000000000e-01 4.379399999999999959e-02 3.335250000000000159e-01 8.417329999999999535e-01 5.969599999999999906e-02 -7.279959999999999765e-01 -2.030863999999999780e+00 1.507133000000000056e+00