-9.060806646600000249e+02
-9.200587109499999769e+02
-9.165785425300000497e+02
-9.117308128800000304e+02
-8.974359560699999747e+02
-9.063699477999999772e+02
-8.969165214900000365e+02
-9.050231533899999476e+02
-8.970755663300000151e+02
-8.888962565000000495e+02
-8.887415161000000126e+02
-8.989742647900000065e+02
-8.911324739499999623e+02
-8.926245344200000318e+02
-9.090979338800000278e+02
-8.890451599499999702e+02
-8.986109850699999697e+02
-8.981297567999999956e+02
-8.909591198000000531e+02
-9.104047685599999795e+02
-8.890034025200000087e+02
-9.157858499699999584e+02
-8.951244585599999937e+02
-8.997113900800000010e+02
-9.026180757099999710e+02
-9.011646089299999858e+02
-9.007158604999999625e+02
-8.959565040300000192e+02
-9.121796052199999849e+02
-9.030708568600000490e+02
-9.007886631799999577e+02
-9.006670551900000419e+02
-9.192384985600000391e+02
-9.035827266000000009e+02
-9.110958471999999801e+02
-9.000567636299999776e+02
-8.905820195600000488e+02
-8.905741101800000479e+02
-9.079943984300000466e+02
-9.113224019699999872e+02
-9.045221447000000126e+02
-8.933281697600000371e+02
-9.157310142400000359e+02
-9.020520531199999823e+02
-9.021180119599999898e+02
-8.977786532999999736e+02
-8.949101484399999435e+02
-8.939392817499999637e+02
-9.051365241199999900e+02
-9.089700402299999951e+02
-8.996126743800000440e+02
-9.125860812900000383e+02
-9.021446195199999920e+02
-9.095320237399999996e+02
-8.927625057699999616e+02
-9.104284230600000001e+02
-8.940151421299999583e+02
-9.016071439600000303e+02
-9.163331282499999588e+02
-8.979901765800000248e+02
-8.985156028500000502e+02
-8.862284171600000491e+02
-9.131750560200000564e+02
-8.987721858400000201e+02
-8.897321252299999514e+02
-9.044538340000000289e+02
-8.898241213200000175e+02
-9.118697479200000089e+02
-9.122373715500000344e+02
-9.113465702099999817e+02
-8.945303601299999627e+02
-9.163870207899999514e+02
-8.858252083899999434e+02
-9.064304620899999918e+02
-9.058338786900000059e+02
-9.171606778699999722e+02
-8.988586328300000332e+02
-8.921025619299999789e+02
-8.885577568300000166e+02
-9.107396268400000281e+02
-9.076356553599999870e+02
-8.919749601299999995e+02
-9.171703668000000107e+02
-8.893960457399999768e+02
-9.036404423799999677e+02
-8.909868503100000225e+02
-8.941274491899999930e+02
-8.989772160300000223e+02
-8.974753541200000200e+02
-9.066525626999999758e+02
-9.169616576099999747e+02
-8.948238130500000125e+02
-9.030872114000000010e+02
-8.957715981600000532e+02
-8.972788544700000557e+02
-8.977779123399999435e+02
-8.949555335699999432e+02
-8.987516601900000524e+02
-8.986927313300000151e+02
-9.163368881699999520e+02
