1.048066665500000028e+01 0.000000000000000000e+00 0.000000000000000000e+00 -6.996126000000000081e-03 1.048069291400000047e+01 0.000000000000000000e+00 6.204490000000000222e-04 6.579350000000000085e-04 1.078687762999999933e+01
1.007443414499999967e+01 0.000000000000000000e+00 0.000000000000000000e+00 -6.724955000000000342e-03 1.007445938699999921e+01 0.000000000000000000e+00 5.963999999999999684e-04 6.324329999999999535e-04 1.036877632799999915e+01
1.059581904000000030e+01 0.000000000000000000e+00 0.000000000000000000e+00 -7.072992999999999642e-03 1.059584558799999954e+01 0.000000000000000000e+00 6.272660000000000215e-04 6.651629999999999739e-04 1.090539439299999991e+01
1.048717184600000074e+01 0.000000000000000000e+00 0.000000000000000000e+00 -7.000468999999999616e-03 1.048719812100000048e+01 0.000000000000000000e+00 6.208340000000000126e-04 6.583430000000000358e-04 1.079357288099999934e+01
1.012341850500000007e+01 0.000000000000000000e+00 0.000000000000000000e+00 -6.757652999999999750e-03 1.012344386900000082e+01 0.000000000000000000e+00 5.992999999999999846e-04 6.355080000000000147e-04 1.041919185100000078e+01
1.023335020600000078e+01 0.000000000000000000e+00 0.000000000000000000e+00 -6.831036000000000399e-03 1.023337584599999950e+01 0.000000000000000000e+00 6.058079999999999975e-04 6.424090000000000356e-04 1.053233539900000082e+01
1.046130154499999954e+01 0.000000000000000000e+00 0.000000000000000000e+00 -6.983198999999999830e-03 1.046132775499999923e+01 0.000000000000000000e+00 6.193019999999999602e-04 6.567190000000000527e-04 1.076694673399999935e+01
1.057180171699999960e+01 0.000000000000000000e+00 0.000000000000000000e+00 -7.056960999999999616e-03 1.057182820499999920e+01 0.000000000000000000e+00 6.258439999999999663e-04 6.636559999999999898e-04 1.088067536199999985e+01
1.020248048700000076e+01 0.000000000000000000e+00 0.000000000000000000e+00 -6.810428999999999788e-03 1.020250605000000022e+01 0.000000000000000000e+00 6.039799999999999466e-04 6.404709999999999874e-04 1.050056376799999924e+01
1.068980948099999928e+01 0.000000000000000000e+00 0.000000000000000000e+00 -7.135734999999999821e-03 1.068983626400000020e+01 0.000000000000000000e+00 6.328300000000000244e-04 6.710639999999999704e-04 1.100213092799999970e+01
1.078786898499999936e+01 0.000000000000000000e+00 0.000000000000000000e+00 -7.201192000000000357e-03 1.078789601399999931e+01 0.000000000000000000e+00 6.386350000000000273e-04 6.772199999999999704e-04 1.110305541199999979e+01
1.070420478800000019e+01 0.000000000000000000e+00 0.000000000000000000e+00 -7.145343999999999654e-03 1.070423160800000062e+01 0.000000000000000000e+00 6.336819999999999953e-04 6.719680000000000011e-04 1.101694681999999936e+01
1.072324807799999924e+01 0.000000000000000000e+00 0.000000000000000000e+00 -7.158056000000000314e-03 1.072327494500000000e+01 0.000000000000000000e+00 6.348089999999999592e-04 6.731629999999999515e-04 1.103654649299999946e+01
1.047902109700000040e+01 0.000000000000000000e+00 0.000000000000000000e+00 -6.995028000000000357e-03 1.047904735200000026e+01 0.000000000000000000e+00 6.203509999999999970e-04 6.578309999999999973e-04 1.078518399400000050e+01
1.024275797700000012e+01 0.000000000000000000e+00 0.000000000000000000e+00 -6.837316000000000400e-03 1.024278364000000074e+01 0.000000000000000000e+00 6.063649999999999856e-04 6.430000000000000169e-04 1.054201803399999982e+01
1.066159199199999996e+01 0.000000000000000000e+00 0.000000000000000000e+00 -7.116899000000000315e-03 1.066161870400000033e+01 0.000000000000000000e+00 6.311589999999999518e-04 6.692920000000000423e-04 1.097308901599999942e+01
1.073328291700000037e+01 0.000000000000000000e+00 0.000000000000000000e+00 -7.164753999999999741e-03 1.073330980899999965e+01 0.000000000000000000e+00 6.354029999999999878e-04 6.737930000000000048e-04 1.104687451699999912e+01
1.062476097300000077e+01 0.000000000000000000e+00 0.000000000000000000e+00 -7.092313000000000263e-03 1.062478759300000064e+01 0.000000000000000000e+00 6.289789999999999964e-04 6.669799999999999601e-04 1.093518191499999936e+01
1.058395643999999969e+01 0.000000000000000000e+00 0.000000000000000000e+00 -7.065074999999999654e-03 1.058398295800000000e+01 0.000000000000000000e+00 6.265630000000000114e-04 6.644189999999999688e-04 1.089318520600000006e+01
1.071396065200000081e+01 0.000000000000000000e+00 0.000000000000000000e+00 -7.151855999999999838e-03 1.071398749599999967e+01 0.000000000000000000e+00 6.342589999999999730e-04 6.725799999999999878e-04 1.102698771800000088e+01
1.046648639000000003e+01 0.000000000000000000e+00 0.000000000000000000e+00 -6.986659999999999572e-03 1.046651261400000088e+01 0.000000000000000000e+00 6.196090000000000235e-04 6.570439999999999657e-04 1.077228306299999971e+01
1.035113639000000063e+01 0.000000000000000000e+00 0.000000000000000000e+00 -6.909661000000000101e-03 1.035116232500000066e+01 0.000000000000000000e+00 6.127809999999999594e-04 6.498030000000000125e-04 1.065356291199999994e+01
1.050453363899999992e+01 0.000000000000000000e+00 0.000000000000000000e+00 -7.012057999999999833e-03 1.050455995799999975e+01 0.000000000000000000e+00 6.218620000000000441e-04 6.594329999999999593e-04 1.081144193000000087e+01
1.062211717199999939e+01 0.000000000000000000e+00 0.000000000000000000e+00 -7.090548000000000337e-03 1.062214378500000045e+01 0.000000000000000000e+00 6.288220000000000181e-04 6.668139999999999484e-04 1.093246086999999989e+01
1.067125262799999952e+01 0.000000000000000000e+00 0.000000000000000000e+00 -7.123347000000000359e-03 1.067127936500000018e+01 0.000000000000000000e+00 6.317309999999999592e-04 6.698989999999999502e-04 1.098303190500000071e+01
1.055686692699999973e+01 0.000000000000000000e+00 0.000000000000000000e+00 -7.046992000000000186e-03 1.055689337799999983e+01 0.000000000000000000e+00 6.249600000000000337e-04 6.627179999999999660e-04 1.086530422599999923e+01
1.006539702799999958e+01 0.000000000000000000e+00 0.000000000000000000e+00 -6.718922999999999909e-03 1.006542224700000077e+01 0.000000000000000000e+00 5.958650000000000014e-04 6.318660000000000249e-04 1.035947517500000004e+01
1.041365837700000085e+01 0.000000000000000000e+00 0.000000000000000000e+00 -6.951396000000000311e-03 1.041368446799999958e+01 0.000000000000000000e+00 6.164820000000000109e-04 6.537280000000000131e-04 1.071791158799999977e+01
1.065904801199999952e+01 0.000000000000000000e+00 0.000000000000000000e+00 -7.115200000000000344e-03 1.065907471799999939e+01 0.000000000000000000e+00 6.310089999999999753e-04 6.691330000000000324e-04 1.097047071000000074e+01
1.032021243199999994e+01 0.000000000000000000e+00 0.000000000000000000e+00 -6.889018999999999698e-03 1.032023828900000062e+01 0.000000000000000000e+00 6.109499999999999697e-04 6.478620000000000255e-04 1.062173545699999977e+01
1.070829662400000082e+01 0.000000000000000000e+00 0.000000000000000000e+00 -7.148075000000000262e-03 1.070832345400000030e+01 0.000000000000000000e+00 6.339240000000000109e-04 6.722240000000000203e-04 1.102115820600000085e+01
1.072134609000000083e+01 0.000000000000000000e+00 0.000000000000000000e+00 -7.156786000000000050e-03 1.072137295199999940e+01 0.000000000000000000e+00 6.346970000000000389e-04 6.730440000000000294e-04 1.103458893500000038e+01
1.053749943500000086e+01 0.000000000000000000e+00 0.000000000000000000e+00 -7.034063999999999595e-03 1.053752583700000045e+01 0.000000000000000000e+00 6.238129999999999717e-04 6.615020000000000101e-04 1.084537087900000074e+01
1.093250461300000076e+01 0.000000000000000000e+00 0.000000000000000000e+00 -7.297739999999999609e-03 1.093253200400000047e+01 0.000000000000000000e+00 6.471969999999999633e-04 6.862990000000000236e-04 1.125191682300000018e+01
1.050556459699999934e+01 0.000000000000000000e+00 0.000000000000000000e+00 -7.012746000000000257e-03 1.050559091799999933e+01 0.000000000000000000e+00 6.219230000000000287e-04 6.594980000000000070e-04 1.081250300800000019e+01
1.094198088499999955e+01 0.000000000000000000e+00 0.000000000000000000e+00 -7.304065999999999684e-03 1.094200829999999947e+01 0.000000000000000000e+00 6.477580000000000143e-04 6.868939999999999595e-04 1.126166996000000076e+01
1.057628688900000036e+01 0.000000000000000000e+00 0.000000000000000000e+00 -7.059954999999999703e-03 1.057631338800000087e+01 0.000000000000000000e+00 6.261090000000000188e-04 6.639369999999999690e-04 1.088529157600000019e+01
1.056113846100000053e+01 0.000000000000000000e+00 0.000000000000000000e+00 -7.049843000000000082e-03 1.056116492199999968e+01 0.000000000000000000e+00 6.252130000000000057e-04 6.629859999999999573e-04 1.086970056000000007e+01
1.036844948100000074e+01 0.000000000000000000e+00 0.000000000000000000e+00 -6.921217999999999815e-03 1.036847545900000078e+01 0.000000000000000000e+00 6.138050000000000363e-04 6.508899999999999972e-04 1.067138183500000004e+01
1.054525704399999952e+01 0.000000000000000000e+00 0.000000000000000000e+00 -7.039242000000000242e-03 1.054528346500000069e+01 0.000000000000000000e+00 6.242720000000000430e-04 6.619889999999999802e-04 1.085335513999999968e+01
1.021788603100000081e+01 0.000000000000000000e+00 0.000000000000000000e+00 -6.820712999999999950e-03 1.021791163199999986e+01 0.000000000000000000e+00 6.048919999999999948e-04 6.414380000000000342e-04 1.051641941099999933e+01
1.068049580399999954e+01 0.000000000000000000e+00 0.000000000000000000e+00 -7.129517000000000146e-03 1.068052256400000033e+01 0.000000000000000000e+00 6.322780000000000067e-04 6.704789999999999752e-04 1.099254513600000038e+01
1.043300426999999964e+01 0.000000000000000000e+00 0.000000000000000000e+00 -6.964309999999999598e-03 1.043303041000000064e+01 0.000000000000000000e+00 6.176270000000000414e-04 6.549429999999999532e-04 1.073782270499999925e+01
1.039593626799999981e+01 0.000000000000000000e+00 0.000000000000000000e+00 -6.939566000000000311e-03 1.039596231500000023e+01 0.000000000000000000e+00 6.154329999999999740e-04 6.526159999999999600e-04 1.069967169699999943e+01
1.043207798999999980e+01 0.000000000000000000e+00 0.000000000000000000e+00 -6.963691999999999625e-03 1.043210412700000056e+01 0.000000000000000000e+00 6.175720000000000428e-04 6.548840000000000000e-04 1.073686936200000019e+01
1.055475745000000032e+01 0.000000000000000000e+00 0.000000000000000000e+00 -7.045583999999999701e-03 1.055478389499999992e+01 0.000000000000000000e+00 6.248350000000000171e-04 6.625859999999999476e-04 1.086313311700000028e+01
1.038092455199999975e+01 0.000000000000000000e+00 0.000000000000000000e+00 -6.929545999999999970e-03 1.038095056100000058e+01 0.000000000000000000e+00 6.145439999999999627e-04 6.516729999999999658e-04 1.068422138699999913e+01
1.038278308900000013e+01 0.000000000000000000e+00 0.000000000000000000e+00 -6.930786000000000412e-03 1.038280910299999960e+01 0.000000000000000000e+00 6.146539999999999599e-04 6.517899999999999649e-04 1.068613422499999999e+01
1.113914393399999980e+01 0.000000000000000000e+00 0.000000000000000000e+00 -7.435676999999999912e-03 1.113917184299999974e+01 0.000000000000000000e+00 6.594300000000000205e-04 6.992710000000000072e-04 1.146459347200000067e+01
1.050478147099999937e+01 0.000000000000000000e+00 0.000000000000000000e+00 -7.012222999999999720e-03 1.050480778999999920e+01 0.000000000000000000e+00 6.218760000000000477e-04 6.594489999999999944e-04 1.081169700200000072e+01
1.021668596600000001e+01 0.000000000000000000e+00 0.000000000000000000e+00 -6.819912000000000023e-03 1.021671156400000058e+01 0.000000000000000000e+00 6.048209999999999611e-04 6.413630000000000459e-04 1.051518428400000005e+01
1.057596318599999918e+01 0.000000000000000000e+00 0.000000000000000000e+00 -7.059738999999999771e-03 1.057598968399999961e+01 0.000000000000000000e+00 6.260900000000000449e-04 6.639169999999999794e-04 1.088495841499999983e+01
1.067789139499999962e+01 0.000000000000000000e+00 0.000000000000000000e+00 -7.127778999999999886e-03 1.067791814799999983e+01 0.000000000000000000e+00 6.321239999999999672e-04 6.703160000000000108e-04 1.098986463399999991e+01
1.018658165899999979e+01 0.000000000000000000e+00 0.000000000000000000e+00 -6.799816999999999667e-03 1.018660718099999940e+01 0.000000000000000000e+00 6.030389999999999839e-04 6.394729999999999945e-04 1.048420042699999932e+01
1.070496969899999939e+01 0.000000000000000000e+00 0.000000000000000000e+00 -7.145854000000000095e-03 1.070499651999999990e+01 0.000000000000000000e+00 6.337270000000000533e-04 6.720159999999999979e-04 1.101773407800000015e+01
1.044840406600000016e+01 0.000000000000000000e+00 0.000000000000000000e+00 -6.974590000000000130e-03 1.044843024500000084e+01 0.000000000000000000e+00 6.185389999999999812e-04 6.559089999999999842e-04 1.075367243300000020e+01
1.059147946300000065e+01 0.000000000000000000e+00 0.000000000000000000e+00 -7.070097000000000013e-03 1.059150600000000075e+01 0.000000000000000000e+00 6.270089999999999865e-04 6.648910000000000280e-04 1.090092802700000085e+01
1.058839016299999969e+01 0.000000000000000000e+00 0.000000000000000000e+00 -7.068033999999999949e-03 1.058841669199999913e+01 0.000000000000000000e+00 6.268260000000000325e-04 6.646970000000000092e-04 1.089774846799999963e+01
1.043824435199999989e+01 0.000000000000000000e+00 0.000000000000000000e+00 -6.967807999999999814e-03 1.043827050500000020e+01 0.000000000000000000e+00 6.179370000000000435e-04 6.552720000000000376e-04 1.074321588499999969e+01
1.039635804000000086e+01 0.000000000000000000e+00 0.000000000000000000e+00 -6.939848000000000197e-03 1.039638408799999958e+01 0.000000000000000000e+00 6.154580000000000424e-04 6.526420000000000441e-04 1.070010579100000037e+01
1.064769116499999946e+01 0.000000000000000000e+00 0.000000000000000000e+00 -7.107618999999999916e-03 1.064771784300000057e+01 0.000000000000000000e+00 6.303360000000000039e-04 6.684199999999999734e-04 1.095878205300000019e+01
1.016662366799999972e+01 0.000000000000000000e+00 0.000000000000000000e+00 -6.786493999999999686e-03 1.016664914000000053e+01 0.000000000000000000e+00 6.018570000000000213e-04 6.382199999999999982e-04 1.046365932800000031e+01
1.042180373899999957e+01 0.000000000000000000e+00 0.000000000000000000e+00 -6.956834000000000282e-03 1.042182984999999995e+01 0.000000000000000000e+00 6.169640000000000107e-04 6.542390000000000358e-04 1.072629492999999989e+01
1.054688005699999920e+01 0.000000000000000000e+00 0.000000000000000000e+00 -7.040325000000000055e-03 1.054690648200000069e+01 0.000000000000000000e+00 6.243680000000000367e-04 6.620909999999999599e-04 1.085502557200000062e+01
1.013757398499999951e+01 0.000000000000000000e+00 0.000000000000000000e+00 -6.767103000000000007e-03 1.013759938499999969e+01 0.000000000000000000e+00 6.001379999999999519e-04 6.363970000000000260e-04 1.043376090900000008e+01
1.048056318100000084e+01 0.000000000000000000e+00 0.000000000000000000e+00 -6.996056999999999970e-03 1.048058943999999926e+01 0.000000000000000000e+00 6.204430000000000361e-04 6.579280000000000067e-04 1.078677113300000023e+01
1.021669428400000079e+01 0.000000000000000000e+00 0.000000000000000000e+00 -6.819918000000000334e-03 1.021671988199999959e+01 0.000000000000000000e+00 6.048219999999999768e-04 6.413639999999999532e-04 1.051519284499999962e+01
1.066542966799999981e+01 0.000000000000000000e+00 0.000000000000000000e+00 -7.119460000000000198e-03 1.066545638999999923e+01 0.000000000000000000e+00 6.313859999999999481e-04 6.695330000000000422e-04 1.097703881600000031e+01
1.059085317999999987e+01 0.000000000000000000e+00 0.000000000000000000e+00 -7.069678999999999720e-03 1.059087971599999989e+01 0.000000000000000000e+00 6.269719999999999460e-04 6.648519999999999560e-04 1.090028344699999963e+01
1.052983352300000064e+01 0.000000000000000000e+00 0.000000000000000000e+00 -7.028946000000000326e-03 1.052985990500000035e+01 0.000000000000000000e+00 6.233589999999999791e-04 6.610210000000000261e-04 1.083748099299999978e+01
1.032930455400000014e+01 0.000000000000000000e+00 0.000000000000000000e+00 -6.895087999999999738e-03 1.032933043399999917e+01 0.000000000000000000e+00 6.114879999999999838e-04 6.484330000000000172e-04 1.063109322100000043e+01
1.042100354199999934e+01 0.000000000000000000e+00 0.000000000000000000e+00 -6.956298999999999989e-03 1.042102965199999964e+01 0.000000000000000000e+00 6.169170000000000296e-04 6.541890000000000075e-04 1.072547135499999982e+01
1.043135124299999994e+01 0.000000000000000000e+00 0.000000000000000000e+00 -6.963206999999999904e-03 1.043137737800000053e+01 0.000000000000000000e+00 6.175290000000000163e-04 6.548390000000000504e-04 1.073612138200000032e+01
1.063794685499999915e+01 0.000000000000000000e+00 0.000000000000000000e+00 -7.101114999999999858e-03 1.063797350799999997e+01 0.000000000000000000e+00 6.297600000000000420e-04 6.678079999999999867e-04 1.094875304500000013e+01
1.009522943700000042e+01 0.000000000000000000e+00 0.000000000000000000e+00 -6.738835999999999785e-03 1.009525473000000062e+01 0.000000000000000000e+00 5.976310000000000519e-04 6.337380000000000096e-04 1.039017918999999956e+01
1.036338907400000053e+01 0.000000000000000000e+00 0.000000000000000000e+00 -6.917839999999999753e-03 1.036341503899999950e+01 0.000000000000000000e+00 6.135059999999999906e-04 6.505719999999999776e-04 1.066617357900000052e+01
1.040386288899999911e+01 0.000000000000000000e+00 0.000000000000000000e+00 -6.944857999999999934e-03 1.040388895499999933e+01 0.000000000000000000e+00 6.159019999999999859e-04 6.531129999999999792e-04 1.070782990700000070e+01
1.033660716400000013e+01 0.000000000000000000e+00 0.000000000000000000e+00 -6.899963000000000277e-03 1.033663306300000073e+01 0.000000000000000000e+00 6.119199999999999553e-04 6.488909999999999643e-04 1.063860918900000030e+01
1.038567515999999991e+01 0.000000000000000000e+00 0.000000000000000000e+00 -6.932716999999999699e-03 1.038570118099999995e+01 0.000000000000000000e+00 6.148250000000000503e-04 6.519709999999999958e-04 1.068911079199999925e+01
1.051088076999999998e+01 0.000000000000000000e+00 0.000000000000000000e+00 -7.016294999999999650e-03 1.051090710499999936e+01 0.000000000000000000e+00 6.222369999999999854e-04 6.598310000000000460e-04 1.081797450300000030e+01
1.048692776999999943e+01 0.000000000000000000e+00 0.000000000000000000e+00 -7.000306000000000410e-03 1.048695404499999917e+01 0.000000000000000000e+00 6.208189999999999932e-04 6.583280000000000165e-04 1.079332167399999953e+01
1.023172655099999950e+01 0.000000000000000000e+00 0.000000000000000000e+00 -6.829952000000000245e-03 1.023175218599999958e+01 0.000000000000000000e+00 6.057120000000000039e-04 6.423069999999999474e-04 1.053066430600000025e+01
1.008668519299999922e+01 0.000000000000000000e+00 0.000000000000000000e+00 -6.733132999999999653e-03 1.008671046499999946e+01 0.000000000000000000e+00 5.971249999999999995e-04 6.332020000000000270e-04 1.038138531200000081e+01
1.041430422400000033e+01 0.000000000000000000e+00 0.000000000000000000e+00 -6.951826999999999833e-03 1.041433031699999923e+01 0.000000000000000000e+00 6.165199999999999587e-04 6.537690000000000081e-04 1.071857630499999914e+01
1.055387952599999934e+01 0.000000000000000000e+00 0.000000000000000000e+00 -7.044998000000000232e-03 1.055390596900000055e+01 0.000000000000000000e+00 6.247829999999999573e-04 6.625309999999999490e-04 1.086222954299999977e+01
1.045460950500000052e+01 0.000000000000000000e+00 0.000000000000000000e+00 -6.978731999999999644e-03 1.045463569900000067e+01 0.000000000000000000e+00 6.189060000000000134e-04 6.562990000000000533e-04 1.076005917400000023e+01
1.038441827699999997e+01 0.000000000000000000e+00 0.000000000000000000e+00 -6.931877999999999825e-03 1.038444429599999985e+01 0.000000000000000000e+00 6.147509999999999693e-04 6.518929999999999603e-04 1.068781718800000036e+01
1.079485136899999986e+01 0.000000000000000000e+00 0.000000000000000000e+00 -7.205852999999999911e-03 1.079487841599999953e+01 0.000000000000000000e+00 6.390480000000000249e-04 6.776580000000000364e-04 1.111024179900000064e+01
1.057622427699999967e+01 0.000000000000000000e+00 0.000000000000000000e+00 -7.059913000000000126e-03 1.057625077600000019e+01 0.000000000000000000e+00 6.261059999999999716e-04 6.639330000000000145e-04 1.088522713499999917e+01
1.041841222999999950e+01 0.000000000000000000e+00 0.000000000000000000e+00 -6.954570000000000196e-03 1.041843833299999922e+01 0.000000000000000000e+00 6.167629999999999901e-04 6.540269999999999504e-04 1.072280433299999913e+01
1.068712975599999915e+01 0.000000000000000000e+00 0.000000000000000000e+00 -7.133946000000000384e-03 1.068715653299999957e+01 0.000000000000000000e+00 6.326710000000000146e-04 6.708960000000000357e-04 1.099937291100000003e+01
1.010312165000000029e+01 0.000000000000000000e+00 0.000000000000000000e+00 -6.744105000000000238e-03 1.010314696300000037e+01 0.000000000000000000e+00 5.980980000000000324e-04 6.342340000000000130e-04 1.039830198800000005e+01
1.049134137699999947e+01 0.000000000000000000e+00 0.000000000000000000e+00 -7.003251999999999741e-03 1.049136766300000012e+01 0.000000000000000000e+00 6.210809999999999985e-04 6.586050000000000411e-04 1.079786423200000023e+01
1.066649775299999980e+01 0.000000000000000000e+00 0.000000000000000000e+00 -7.120172999999999607e-03 1.066652447799999948e+01 0.000000000000000000e+00 6.314499999999999801e-04 6.696000000000000129e-04 1.097813810799999956e+01
1.031521663600000061e+01 0.000000000000000000e+00 0.000000000000000000e+00 -6.885684000000000422e-03 1.031524248100000030e+01 0.000000000000000000e+00 6.106539999999999711e-04 6.475479999999999604e-04 1.061659369999999925e+01
1.047032984700000036e+01 0.000000000000000000e+00 0.000000000000000000e+00 -6.989226000000000293e-03 1.047035608000000018e+01 0.000000000000000000e+00 6.198370000000000355e-04 6.572859999999999814e-04 1.077623881399999917e+01
1.131218359900000081e+01 0.000000000000000000e+00 0.000000000000000000e+00 -7.551185999999999662e-03 1.131221194099999927e+01 0.000000000000000000e+00 6.696739999999999854e-04 7.101339999999999606e-04 1.164268879199999951e+01
1.027157069799999967e+01 0.000000000000000000e+00 0.000000000000000000e+00 -6.856548999999999977e-03 1.027159643399999922e+01 0.000000000000000000e+00 6.080700000000000514e-04 6.448079999999999697e-04 1.057167257000000049e+01
1.028593192800000011e+01 0.000000000000000000e+00 0.000000000000000000e+00 -6.866134999999999773e-03 1.028595769900000079e+01 0.000000000000000000e+00 6.089199999999999908e-04 6.457099999999999689e-04 1.058645338800000069e+01
1.032085018599999948e+01 0.000000000000000000e+00 0.000000000000000000e+00 -6.889443999999999776e-03 1.032087604400000025e+01 0.000000000000000000e+00 6.109880000000000259e-04 6.479020000000000048e-04 1.062239184300000083e+01
