-2.450626999999999889e+00 1.823878000000000110e+00 -6.261879999999999669e-01 2.270755999999999997e+00 -4.853092000000000183e+00 1.699387999999999899e+00 3.695587999999999873e+00 1.977205000000000101e+00 3.102199000000000151e+00 6.914096999999999937e+00 -9.173040000000000083e-01 2.569629999999999970e-01 -1.065655999999999937e+00 3.973392000000000035e+00 -2.036201000000000150e+00 -2.978296999999999972e+00 -9.921750000000000291e-01 1.079220000000000040e-01 1.903769999999999907e-01 -3.253601999999999883e+00 -2.153999999999999915e+00 -1.339291000000000009e+00 -2.627771000000000079e+00 4.877271000000000356e+00 2.838710999999999984e+00 1.990013000000000032e+00 -1.640964000000000089e+00 -3.994962000000000124e+00 5.385584999999999845e+00 -1.961019000000000068e+00 -1.705316000000000054e+00 1.648479999999999945e-01 1.364584000000000019e+00 -2.497641999999999918e+00 7.478620000000000267e-01 1.147707999999999950e+00 -7.471640000000000503e-01 2.169398000000000160e+00 1.568008000000000068e+00 3.380453999999999848e+00 -3.095600000000000018e-01 -4.306300000000000239e+00 1.205947000000000102e+00 4.377199999999999841e-02 -1.104673999999999934e+00 -1.346305000000000085e+00 -3.080049999999999732e-01 5.191869999999999541e-01 -1.352923000000000098e+00 1.699662999999999924e+00 3.223845999999999989e+00 4.795619999999999883e-01 1.762947000000000042e+00 -1.603923999999999905e+00 -1.843600000000000100e-02 -5.740790000000000060e-01 -1.281795999999999935e+00 -8.839690000000000047e-01 -2.160311000000000092e+00 -4.624634999999999607e+00 2.024322999999999873e+00 1.288267999999999969e+00 -1.123070000000000013e+00 1.930725999999999942e+00 -1.113120000000000109e+00 -3.812800000000000217e-02 2.305684999999999985e+00 -5.744705999999999868e+00 2.551182999999999979e+00 -6.330917000000000350e+00 1.690600000000000103e+00 1.202385000000000037e+00 1.656990000000000129e-01 -2.901355999999999824e+00 -1.175794999999999924e+00 -1.001495999999999942e+00 6.920950000000000157e-01 4.241230000000000278e-01 -2.137450999999999990e+00 2.606212999999999891e+00 1.010415999999999981e+00 3.764367000000000019e+00 2.135248999999999953e+00 3.909980000000000011e+00 -8.353019999999999889e-01 -7.249259999999999593e-01 -1.157826999999999940e+00 2.391580000000000095e-01 -2.590338000000000029e+00 -6.796180000000000554e-01 -1.104179999999999939e+00 -1.953930000000000111e-01 9.298939999999999984e-01 -2.183799999999999977e-02 -2.617249999999999854e-01 1.474436999999999998e+00 -1.255219999999999947e-01 -1.543717000000000006e+00 2.313369999999999871e-01 -8.508459999999999912e-01 5.869069999999999565e-01 -3.389510000000000023e-01 -2.774945999999999913e+00 -1.913979000000000097e+00 -6.109532999999999880e+00 3.691000999999999976e+00 -9.988550000000000484e-01 1.778718000000000021e+00 1.962985999999999898e+00 2.311943999999999999e+00 -3.815950000000000175e-01 2.360053999999999874e+00 -6.168930000000000247e-01 -7.546899999999999442e-02 -1.511049000000000087e+00 -6.762700000000000655e-02 -1.725638000000000005e+00 8.951540000000000052e-01 3.249200000000000005e-02 5.907550000000000301e-01 1.679610999999999965e+00 2.204039999999999888e-01 7.633140000000000480e-01 -5.998999999999999888e-01 -3.001203999999999983e+00 3.707393999999999856e+00 -1.480615999999999932e+00 -2.698634999999999895e+00 -2.067279999999999951e-01 3.398780000000000134e-01 9.213379999999999903e-01 -8.659510000000000263e-01 -3.643930000000000224e-01 -5.422300000000000036e-02 7.251239999999999908e-01 -1.497889999999999944e+00 8.470250000000000279e-01 -4.831460000000000199e-01 5.035509999999999708e-01 1.271304999999999907e+00 1.503821999999999992e+00 3.508452000000000126e+00 4.452679999999999971e-01 -3.635789999999999855e-01 -1.141664000000000012e+00 7.412969999999999837e-01 1.073385000000000034e+00 1.118573999999999957e+00 -2.946832000000000118e+00 -1.717541999999999902e+00 -7.437200000000000477e-01 1.167490000000000056e-01 1.520370000000000055e-01 -2.854756000000000071e+00 3.872719000000000023e+00 1.404625000000000012e+00 -6.921850000000000502e-01 1.022537000000000029e+00 -5.805240000000000400e-01 -9.701450000000000351e-01 1.275850000000000040e-01 -4.507809999999999873e-01 1.971656999999999993e+00 -3.735043999999999809e+00 -1.704714999999999980e+00 6.202889999999999793e-01 4.382380000000000164e-01 -1.112816999999999945e+00 5.595759999999999623e-01 -1.354924000000000017e+00 1.700873999999999997e+00 1.940260000000000040e-01 2.335078999999999905e+00 -4.901595999999999620e+00 -1.208560000000000051e-01 9.313850000000000184e-01 -4.659170000000000256e-01 1.824900000000000133e-02 -9.915829999999999922e-01 3.218328000000000078e+00 -8.444610000000000172e-01 -1.323852000000000029e+00 8.712050000000000072e-01 1.607037999999999967e+00 -2.780200000000000032e-02 1.268113999999999963e+00 -1.321379999999999999e+00 4.626549999999999829e-01 5.245659999999999767e-01 -1.954790000000000139e-01 9.541650000000000409e-01 -1.897777999999999965e+00 -5.264370000000000438e-01 -2.716499000000000219e+00 -8.990650000000000031e-01 1.329144000000000103e+00 -1.582832999999999934e+00 4.022120000000000140e-01 -1.726169999999999982e+00 1.273376000000000063e+00 2.393553999999999959e+00 1.680722999999999967e+00 1.590416999999999970e+00 7.287719999999999754e-01 3.578979999999999939e-01 -8.284059999999999757e-01 1.980309000000000097e+00 -9.412949999999999928e-01 -1.086478999999999973e+00 1.634258999999999906e+00 1.532038000000000011e+00 -7.863210000000000477e-01 4.654940000000000189e-01 5.837820000000000231e-01 8.769949999999999690e-01 -1.184558999999999918e+00 -8.374540000000000317e-01 -1.413477000000000094e+00 -1.085720000000000018e+00 4.013800000000000007e-02 -9.955910000000000037e-01 1.797736000000000001e+00 7.413799999999999557e-02 3.266830000000000012e-01 -2.651970000000000161e-01 1.659095999999999904e+00 1.923866999999999994e+00 -1.097199000000000035e+00 -6.689209999999999878e-01 -2.124476000000000031e+00 -7.641449999999999632e-01 -1.768669000000000047e+00 4.819840000000000235e-01 -3.091380000000000017e+00 -6.826839999999999575e-01 2.144840000000000080e-01 3.102170000000000205e-01 2.932099999999999984e-02 -7.964499999999999913e-01 -1.599644000000000066e+00 -1.399869000000000030e+00 5.056589999999999696e-01 3.092349999999999821e-01 -7.111380000000000479e-01 -9.653089999999999726e-01 2.355154999999999887e+00 -3.111003999999999881e+00 1.197591999999999990e+00 -1.448742999999999892e+00 -2.083985000000000198e+00 6.048449999999999660e-01 -1.476086000000000009e+00 2.982698000000000071e+00 -3.518390000000000128e-01 1.677780000000000105e-01 2.675020000000000175e-01 1.205032000000000103e+00 3.133929999999999771e-01 -7.801449999999999774e-01 -3.155600000000000072e-02 1.444849000000000050e+00 5.441719999999999891e-01 -1.356060000000000043e-01 3.721840000000000148e-01 1.306667000000000023e+00 7.584859999999999935e-01 -3.304577999999999793e+00 -9.968799999999999883e-01 -6.180900000000000283e-02 1.367644000000000082e+00 -7.875250000000000306e-01 -4.803270000000000040e-01 -2.330251000000000072e+00 2.319049999999999834e+00 2.038053000000000115e+00 1.279369999999999952e-01 9.466599999999999460e-01 4.160698000000000008e+00 3.228733000000000075e+00 -1.164813000000000098e+00 2.113599999999999923e-01 -8.395930000000000337e-01
1.021763999999999895e+00 2.111838000000000104e+00 -1.662210000000000076e-01 6.296359999999999735e-01 2.895969999999999933e-01 6.685090000000000199e-01 -1.794621000000000022e+00 2.949418000000000095e+00 1.752045999999999992e+00 5.355210000000000248e-01 -1.348038999999999987e+00 1.832759999999999945e-01 5.753150000000000208e-01 2.512070000000000025e+00 -7.673020000000000396e-01 -4.513570000000000082e-01 2.571521999999999863e+00 -2.293874999999999886e+00 1.908495000000000053e+00 4.383770000000000167e-01 2.054517000000000149e+00 -1.359059999999999935e+00 -1.968844999999999956e+00 -4.031302000000000163e+00 -1.249360000000000026e+00 -1.148663999999999907e+00 3.931718000000000046e+00 -4.184140000000000081e-01 2.218414000000000108e+00 -1.218375999999999904e+00 -7.858549999999999702e-01 4.021000000000000268e-02 -1.259717999999999893e+00 -2.277581000000000078e+00 -2.392163000000000039e+00 -2.507055999999999951e+00 -2.391418999999999961e+00 2.594631999999999827e+00 -1.307280999999999915e+00 1.569870000000000099e+00 2.803189999999999849e-01 -8.887230000000000407e-01 -6.415750000000000064e-01 -4.668549999999999756e+00 -1.443427999999999933e+00 1.254029999999999978e+00 -1.459090999999999916e+00 -9.544749999999999623e-01 1.583072000000000035e+00 2.894601000000000202e+00 6.256289999999999907e-01 1.627906000000000075e+00 -5.229580000000000339e+00 1.343051999999999913e+00 1.665979000000000099e+00 -7.948790000000000022e-01 2.261677999999999855e+00 -5.108949999999999880e-01 -4.742870000000000141e-01 -2.286947000000000063e+00 1.388109000000000037e+00 9.007319999999999771e-01 -7.436559999999999837e-01 -6.236509999999999554e-01 2.564671999999999841e+00 -5.458039999999999559e-01 1.931639000000000106e+00 -8.477320000000000411e-01 -2.354546000000000028e+00 -2.560798000000000130e+00 8.971800000000000608e-02 -6.942359999999999642e-01 1.537840000000000040e-01 -5.170231000000000243e+00 -6.119019999999999460e-01 -1.831055000000000099e+00 -2.822131000000000167e+00 -1.323048999999999920e+00 4.927610000000000046e-01 6.487199999999999911e-02 -1.686242000000000019e+00 -1.344996000000000080e+00 1.430576000000000070e+00 -1.307088999999999945e+00 -1.409826999999999941e+00 -3.612839999999999829e+00 1.430369999999999975e-01 9.837000000000000258e-03 -1.228002000000000038e+00 -4.770809999999999773e-01 -3.447766000000000108e+00 2.299849999999999950e-01 5.401209999999999622e-01 2.366141999999999967e+00 1.244658000000000042e+00 1.626837000000000089e+00 2.977821000000000051e+00 -3.075240000000000196e-01 1.119494999999999907e+00 1.560014999999999930e+00 -2.373480000000000034e-01 -8.466139999999999777e-01 -6.455899999999999972e-01 6.607389999999999652e-01 -2.895300000000000096e-01 1.843750000000000111e-01 -2.392450000000000132e-01 -1.092737000000000069e+00 1.187761000000000067e+00 -1.954493000000000036e+00 1.513411000000000062e+00 9.264459999999999917e-01 6.745379999999999709e-01 -1.353947000000000012e+00 1.444315000000000015e+00 -2.329493999999999954e+00 -1.691875999999999935e+00 -9.993309999999999693e-01 2.014607999999999954e+00 1.393278000000000016e+00 -2.125920000000000032e-01 -3.431779999999999831e-01 -1.646797999999999984e+00 1.197402000000000077e+00 -9.889010000000000300e-01 1.246944000000000052e+00 -2.482139999999999902e-01 -7.742740000000000178e-01 -1.030043000000000042e+00 1.008083999999999980e+00 3.649800000000000266e-02 1.391443999999999903e+00 -2.641112000000000126e+00 -1.361388999999999960e+00 -9.613329999999999931e-01 2.726017000000000134e+00 1.662263999999999964e+00 -6.299350000000000227e-01 -5.425619999999999887e-01 2.956179000000000112e+00 -2.943401000000000156e+00 -3.769080000000000208e-01 -3.683029999999999915e-01 -1.910042999999999935e+00 1.852732000000000046e+00 -1.081053999999999959e+00 9.252930000000000321e-01 -3.300966999999999985e+00 1.588136999999999910e+00 -1.116492000000000040e+00 -4.820829999999999838e-01 -7.972890000000000255e-01 -5.656800000000000023e-02 -1.067388999999999921e+00 2.337413000000000185e+00 2.849946999999999786e+00 2.548275999999999986e+00 -2.306033000000000222e+00 -4.802540000000000142e-01 1.006040999999999963e+00 -2.286751999999999896e+00 -1.401370999999999922e+00 6.577499999999999458e-01 6.564630000000000187e-01 4.402099999999999902e+00 7.603419999999999623e-01 5.659170000000000034e-01 2.819808999999999788e+00 5.300759999999999916e-01 -3.382180000000000186e-01 1.142587000000000019e+00 2.135549999999999948e-01 -2.658800000000000052e-02 8.978059999999999929e-01 1.976296999999999970e+00 -3.037863000000000202e+00 2.501256000000000146e+00 -1.618649999999999922e+00 -1.497924999999999951e+00 3.562215000000000131e+00 -8.339429999999999898e-01 -9.046830000000000149e-01 9.509400000000000075e-01 2.068709999999999993e-01 4.642080000000000095e-01 1.737019999999999953e-01 4.432760000000000034e-01 5.279730000000000256e-01 1.321849999999999969e+00 4.442874999999999908e+00 3.015600000000000058e+00 7.048940000000000206e-01 -4.601850000000000107e-01 1.230386999999999897e+00 2.760699999999999960e-02 -5.566870000000000429e-01 -1.202733000000000052e+00 5.721049999999999747e-01 4.008909999999999973e-01 4.462630000000000208e-01 1.922033000000000103e+00 4.322199999999999931e-01 -6.353900000000000103e-01 -1.509492000000000056e+00 -2.197632000000000030e+00 3.595000000000000279e-02 5.892300000000000315e-01 -1.568945000000000034e+00 -6.806299999999999850e-02 7.481330000000000480e-01 -7.403200000000000058e-02 -8.860829999999999540e-01 -1.390886000000000067e+00 -7.420100000000000307e-02 8.401239999999999819e-01 4.403360000000000052e-01 5.996369999999999756e-01 -1.278243000000000018e+00 -9.050120000000000386e-01 -1.374840999999999980e+00 1.549655999999999922e+00 1.645178999999999947e+00 5.343959999999999821e-01 -2.589049999999999963e-01 -1.627639999999999976e+00 -2.214740000000000042e-01 -5.043269999999999698e-01 -8.005060000000000509e-01 -1.757382999999999917e+00 -4.368139999999999801e-01 -2.164210000000000023e-01 -1.850222000000000033e+00 1.210453000000000001e+00 1.534548999999999941e+00 -1.963192000000000048e+00 3.762896000000000019e+00 -3.625169000000000086e+00 -8.669280000000000319e-01 1.058349999999999902e+00 1.522500000000000069e-02 -2.970099999999999962e-01 -8.133150000000000102e-01 5.594689999999999941e-01 4.528662999999999883e+00 2.051390000000000047e+00 3.022647999999999779e+00 -1.672190000000000065e-01 1.490898999999999974e+00 -2.467820000000000014e-01 -1.296871000000000107e+00 3.417800000000000005e-02 8.122650000000000148e-01 1.939159999999999995e+00 -7.148499999999999854e-01 -1.713097000000000092e+00 -1.422398999999999969e+00 4.129390000000000005e-01 -3.711019999999999874e-01 2.388977999999999824e+00 1.703405000000000058e+00 4.426930000000000032e-01 -2.993399999999999950e-01 1.416300000000000059e-01 5.283959999999999768e-01 -1.462771000000000043e+00 1.338201999999999892e+00 8.479529999999999568e-01 2.093740000000000046e-01 -8.615620000000000500e-01 -1.971969000000000083e+00 -1.271350999999999898e+00 -6.555220000000000491e-01 -1.414900000000000047e-01 -2.285849999999999937e+00 -9.591640000000000166e-01 -2.157920000000000116e-01 -4.086000000000000049e-02 2.538304999999999811e+00 -7.926980000000000137e-01 -2.053999999999999923e-02 1.188784999999999981e+00 4.092090999999999923e+00
6.881029999999999980e+00 6.616125000000000256e+00 2.515801999999999872e+00 -1.852211999999999970e+00 2.717007999999999868e+00 -1.947821999999999942e+00 4.370120000000000116e-01 -9.747090000000000476e-01 2.204290000000000138e-01 -4.817064000000000235e+00 9.433240000000000514e-01 2.963438000000000017e+00 -1.851798999999999973e+00 -2.509520000000000084e-01 6.701979999999999604e-01 1.310024999999999995e+00 -3.114500000000000046e+00 -1.545159999999999867e-01 -4.608019999999999894e-01 2.732434000000000029e+00 -1.626576999999999940e+00 3.031912999999999858e+00 -2.763850000000000140e+00 6.392514000000000252e+00 -8.640309999999999935e-01 2.003276000000000057e+00 -3.040559999999999929e-01 1.548871000000000109e+00 -6.313130000000000130e-01 1.022109999999999963e-01 -3.417240000000000277e-01 -6.287399999999999933e-02 -3.872405000000000097e+00 7.871409999999999796e-01 1.800181999999999949e+00 -2.076719999999999955e-01 2.406536000000000008e+00 1.783438000000000079e+00 -1.876403999999999961e+00 -4.602859999999999729e-01 2.432272000000000212e+00 7.116160000000000263e-01 2.569421999999999873e+00 -2.851558999999999955e+00 -3.313877999999999879e+00 -2.628029999999999866e+00 -1.818084000000000033e+00 -2.607806000000000068e+00 -1.376843000000000039e+00 -2.995877000000000123e+00 4.065699999999999870e-01 -1.116810000000000080e+00 1.091625000000000068e+00 2.860650999999999833e+00 -1.016539999999999999e+00 -2.164121999999999879e+00 -1.200898999999999939e+00 -1.793692000000000064e+00 -2.551531000000000216e+00 2.331479999999999941e-01 -2.092318999999999818e+00 1.480375999999999914e+00 2.720228999999999786e+00 -2.467400000000000149e-02 -1.412700000000000067e-02 -3.105449999999999822e+00 -2.983140000000000236e-01 -1.742900000000000005e-01 3.742046999999999901e+00 -6.851439999999999753e-01 -2.331999999999999851e+00 -7.560699999999999366e-02 1.791984999999999939e+00 -1.184970999999999997e+00 1.059868999999999950e+00 2.676895000000000024e+00 -5.886510000000000353e+00 3.032890000000000086e+00 -7.742470000000000185e-01 -8.218599999999999517e-02 -2.275748000000000104e+00 -1.665338999999999903e+00 3.390601999999999894e+00 2.842433000000000209e+00 1.818535000000000013e+00 -1.274160000000000015e-01 2.873740000000000183e+00 -2.570885000000000087e+00 -2.653226999999999780e+00 1.939732000000000012e+00 -1.114667000000000074e+00 9.779860000000000220e-01 -1.044345000000000079e+00 -3.364920000000000133e-01 2.540693999999999786e+00 -2.920760000000000023e-01 4.436789999999999901e-01 -4.789979999999999793e-01 -2.600919999999999899e-01 8.247700000000000031e-01 -9.127239999999999798e-01 1.686806000000000028e+00 7.618700000000000472e-02 -3.841390000000000082e-01 -2.720399999999999902e-02 -2.435125999999999902e+00 2.069907999999999859e+00 1.309377000000000013e+00 1.327264999999999917e+00 -1.711600000000000066e-01 -6.048550000000000315e-01 -2.005545999999999829e+00 2.592470000000000052e+00 8.982489999999999641e-01 -8.759259999999999824e-01 2.447100000000000108e-01 1.352845999999999993e+00 -8.921600000000000363e-02 -9.381049999999999667e-01 -7.391480000000000272e-01 -2.886695000000000011e+00 -2.904990999999999879e+00 -7.289369999999999461e-01 2.235850999999999811e+00 -1.734301000000000093e+00 1.447616000000000014e+00 2.311149999999999871e-01 -1.153985000000000039e+00 3.099020000000000108e-01 2.941659999999999831e-01 1.638571999999999917e+00 -1.959454999999999947e+00 3.354800000000000004e-01 2.007753999999999817e+00 6.413969999999999949e-01 -2.061925000000000008e+00 -2.568359000000000059e+00 3.814904999999999990e+00 2.119361000000000050e+00 -2.916971999999999898e+00 -1.699977000000000071e+00 3.173855999999999788e+00 -1.542705999999999911e+00 1.000049999999999967e-01 -3.104805999999999955e+00 3.195851999999999915e+00 1.228358000000000061e+00 -2.721071999999999935e+00 1.939345000000000097e+00 -5.188819999999999544e-01 1.612192000000000069e+00 -2.179945000000000022e+00 -1.442110000000000003e+00 2.327655000000000030e+00 -3.632321999999999829e+00 -3.321960999999999942e+00 1.241311999999999971e+00 1.295166999999999957e+00 7.217409999999999659e-01 2.892500000000000071e-01 2.768205000000000027e+00 3.008999999999999869e-02 1.693745000000000056e+00 -9.117180000000000284e-01 4.628530000000000144e-01 1.424609000000000014e+00 1.431130999999999931e+00 -1.580731000000000108e+00 1.792405999999999944e+00 9.738379999999999814e-01 -2.265099999999999891e-01 1.329455999999999971e+00 -1.547910000000000119e-01 -1.020583000000000018e+00 -4.388230000000000186e-01 -1.835228000000000081e+00 2.166147000000000045e+00 -1.957508000000000026e+00 1.903221000000000052e+00 -5.086049999999999738e-01 4.729709999999999748e-01 -1.364568000000000003e+00 -6.135030000000000205e-01 -3.268991999999999898e+00 5.788739999999999997e-01 -4.088244999999999685e+00 7.062209999999999877e-01 -4.373600000000000265e-01 6.084800000000000209e-01 -3.821240000000000192e-01 2.509629999999999916e-01 -1.338784999999999892e+00 -3.501509999999999900e-01 1.434719000000000078e+00 5.145039999999999614e-01 1.339468000000000103e+00 7.543959999999999555e-01 -1.108862999999999932e+00 -1.730460000000000109e+00 -1.415159999999999973e+00 -2.009136999999999951e+00 1.052893000000000079e+00 1.649599999999999955e+00 -3.124270000000000103e-01 -2.515905000000000058e+00 3.757284999999999986e+00 1.412017999999999995e+00 5.604190000000000005e-01 7.801599999999999646e-01 -1.757902000000000076e+00 -1.148450000000000026e-01 3.763389999999999791e-01 1.192320999999999964e+00 7.391330000000000400e-01 1.639801000000000064e+00 -2.085990000000000066e-01 2.040829999999999866e-01 -1.512701999999999991e+00 -1.829860000000000098e-01 -6.767239999999999922e-01 -4.196500000000000230e-02 -7.027710000000000345e-01 -1.111186999999999925e+00 2.143059999999999965e-01 2.149720999999999993e+00 -4.708209999999999895e-01 -1.232209000000000110e+00 -2.621069999999999789e-01 -9.787500000000000089e-01 5.061050000000000271e-01 -9.675610000000000044e-01 2.245910999999999991e+00 7.919739999999999558e-01 -1.645089000000000024e+00 1.506369999999999987e+00 -9.778399999999999592e-02 -1.120311999999999975e+00 4.729630000000000223e-01 7.307150000000000034e-01 -1.808415000000000106e+00 2.200920000000000099e-01 -1.179253000000000107e+00 2.635269000000000084e+00 -1.434744000000000019e+00 1.458979999999999999e-01 7.320229999999999793e-01 2.633599999999999830e-02 -6.122969999999999802e-01 -9.119699999999999473e-01 -1.475052000000000030e+00 8.853649999999999576e-01 -2.377933000000000074e+00 2.706419999999999937e-01 -4.874379999999999824e-01 1.057563999999999949e+00 4.329867000000000132e+00 -1.689373000000000014e+00 3.225250000000000061e-01 -7.356719999999999926e-01 -7.720409999999999773e-01 -1.182908999999999988e+00 -4.686900000000000094e-02 -1.729770999999999948e+00 -5.040700000000000180e-01 -5.212109999999999799e-01 1.169121999999999995e+00 -2.503420000000000090e-01 -8.624920000000000364e-01 9.428450000000000442e-01 1.609099999999999975e-01 -1.132384999999999975e+00 -4.297270000000000256e-01 5.999109999999999721e-01 1.943735999999999908e+00 -1.097113000000000005e+00 -6.688859999999999806e-01 -6.496619999999999617e-01 9.281650000000000178e-01 -8.033759999999999790e-01 1.053784999999999972e+00 1.047153999999999918e+00 5.274459999999999704e-01
6.956290000000000529e-01 -7.069499999999999673e-01 5.934495000000000076e+00 1.851329000000000002e+00 2.031514000000000042e+00 2.870979999999999865e+00 2.086280000000000079e-01 -3.546259000000000050e+00 -9.116619999999999724e-01 2.508180999999999994e+00 -4.529404999999999681e+00 1.396911000000000014e+00 -2.140689000000000064e+00 2.570717999999999837e+00 -2.358290999999999915e+00 -1.436330000000000107e-01 -1.697437000000000085e+00 1.017702000000000107e+00 1.641180000000000139e-01 3.361399999999999944e-01 -5.967569999999999819e-01 9.263190000000000035e-01 4.486049999999999760e-01 -1.937109999999999943e-01 -1.083809999999999940e+00 -3.305759999999999810e-01 1.207249999999999990e-01 -3.820009000000000210e+00 2.744902999999999871e+00 1.322332000000000063e+00 2.013099999999999959e-02 1.499268999999999963e+00 1.032097999999999960e+00 -1.303385999999999934e+00 -1.115675999999999890e+00 -1.129860000000000086e+00 -1.581471000000000071e+00 6.489749999999999686e-01 1.873531999999999975e+00 2.351230000000000153e+00 -1.755560999999999927e+00 3.491487999999999925e+00 6.964709999999999512e-01 8.417550000000000310e-01 -1.365679999999999950e-01 -3.242684999999999818e+00 2.555658000000000207e+00 -1.507579000000000002e+00 -2.612372999999999834e+00 -6.755750000000000366e-01 -4.687484000000000428e+00 -1.635736000000000079e+00 5.227650000000000352e-01 1.167659000000000002e+00 -7.228090000000000348e-01 9.207969999999999766e-01 -3.471732999999999958e+00 1.930808999999999997e+00 1.584902000000000033e+00 -3.591331999999999969e+00 -1.568150000000000099e-01 8.962839999999999696e-01 1.060959999999999959e-01 -2.247622999999999927e+00 3.343574999999999964e+00 6.036369999999999791e-01 -9.646409999999999707e-01 -3.198663999999999952e+00 -4.606848000000000276e+00 1.824429000000000078e+00 -1.754931999999999936e+00 2.830920000000000103e-01 1.218005000000000004e+00 1.641764000000000001e+00 -2.605583000000000204e+00 4.962820000000000009e-01 2.403871999999999787e+00 1.409494999999999942e+00 -1.558121000000000089e+00 3.970737999999999879e+00 1.282081999999999944e+00 9.660659999999999803e-01 8.797310000000000407e-01 -1.708388999999999935e+00 1.658311000000000091e+00 1.314186000000000076e+00 -2.135990000000000055e+00 -1.948105999999999893e+00 6.967910000000000492e-01 -2.299404000000000003e+00 3.604500000000000065e-02 -1.143272000000000066e+00 -4.075000000000000150e-02 4.611319999999999864e-01 -4.472079999999999944e-01 3.780720000000000192e-01 -1.135040000000000049e+00 -7.919389999999999485e-01 -5.430690000000000239e-01 -2.608619999999999828e-01 -1.472634999999999916e+00 -1.250016999999999934e+00 -5.054699999999999749e-01 2.605465000000000142e+00 4.691029999999999922e-01 -2.747107999999999883e+00 3.675229999999999886e-01 -5.831110000000000460e-01 2.101802999999999866e+00 -1.077706999999999971e+00 3.975480000000000125e-01 2.586571999999999871e+00 -2.459349999999999870e-01 5.049270000000000147e-01 7.970220000000000082e-01 -4.387400000000000327e-02 1.726119999999999877e-01 -2.101814000000000071e+00 2.295898999999999912e+00 1.793563000000000018e+00 1.388045999999999891e+00 -1.205322000000000005e+00 1.279757000000000033e+00 -1.595630000000000104e-01 -2.957510000000000083e+00 1.537026999999999921e+00 5.133969999999999922e-01 -5.895909999999999762e-01 2.283751000000000086e+00 8.705110000000000348e-01 -1.524054999999999938e+00 -1.397829999999999906e-01 6.123899999999999899e-01 1.768339999999999912e-01 1.015816999999999970e+00 5.058420000000000138e-01 -1.105042999999999997e+00 3.089032000000000000e+00 2.609551999999999872e+00 -7.421849999999999836e-01 4.364482999999999890e+00 -2.207225999999999910e+00 -1.754672999999999927e+00 3.464240000000000097e-01 2.596976000000000173e+00 -2.831560000000000188e-01 5.102330000000000476e-01 -8.166470000000000118e-01 1.183942000000000050e+00 -1.083404999999999951e+00 8.370910000000000295e-01 -4.715489999999999959e-01 2.700520000000000143e-01 -9.392169999999999686e-01 1.447391000000000094e+00 2.912612000000000201e+00 2.460119000000000167e+00 -4.477694999999999759e+00 -4.723423000000000371e+00 5.316349999999999687e-01 -1.417157000000000000e+00 -1.058948000000000000e+00 -1.486089999999999911e-01 1.540958999999999968e+00 5.267299999999999760e-02 -3.431100000000000122e-02 -1.586373000000000033e+00 -3.094399999999999928e-01 -1.012999999999999901e+00 3.647100000000000342e-02 -8.534300000000000219e-02 -2.710830000000000184e-01 -9.144839999999999636e-01 -1.252172000000000063e+00 4.502720000000000056e-01 5.758480000000000265e-01 -1.102222000000000035e+00 1.659923000000000037e+00 2.695869000000000071e+00 2.589589999999999947e-01 -1.166771000000000003e+00 -1.073088000000000042e+00 1.015581000000000067e+00 -1.906438000000000077e+00 -7.458519999999999595e-01 1.172053000000000011e+00 1.019673999999999969e+00 1.408660999999999941e+00 -1.149389999999999995e-01 8.517700000000000271e-01 5.920440000000000147e-01 -4.506549999999999723e-01 7.742170000000000440e-01 -1.477292000000000050e+00 5.790149999999999464e-01 1.850732000000000044e+00 7.264140000000000041e-01 -4.036159999999999748e-01 -5.119329999999999714e-01 -2.222059999999999869e-01 -7.658169999999999700e-01 9.268619999999999637e-01 7.880399999999999905e-02 -7.803010000000000224e-01 1.052769999999999984e+00 8.704349999999999588e-01 8.991419999999999968e-01 1.605186999999999919e+00 1.250550999999999968e+00 -5.501960000000000184e-01 2.967217999999999911e+00 3.239278000000000102e+00 -1.800780999999999965e+00 -5.709809999999999608e-01 -1.053600000000000023e-02 9.693310000000000537e-01 -1.026740000000000014e-01 -1.027198000000000055e+00 -8.975269999999999637e-01 -1.466193000000000080e+00 6.705910000000000482e-01 -4.796070000000000055e-01 -4.751020000000000243e-01 -1.369532999999999889e+00 7.361799999999999455e-01 -6.145680000000000032e-01 1.346408000000000049e+00 1.640169999999999906e+00 -2.702424999999999855e+00 -2.566866999999999788e+00 -1.878671999999999898e+00 -7.315150000000000263e-01 -1.164408000000000110e+00 -1.158234999999999904e+00 2.361699999999999910e-02 -8.689050000000000384e-01 -2.135466999999999782e+00 6.492850000000000010e-01 1.487708000000000030e+00 1.971481999999999957e+00 -1.585225000000000106e+00 -6.407869999999999955e-01 -1.850584999999999924e+00 1.315028000000000086e+00 7.012150000000000327e-01 1.547350000000000114e-01 2.419071000000000193e+00 -2.616648999999999781e+00 1.101800000000000002e-01 1.556029000000000106e+00 -1.830408999999999953e+00 1.909966000000000053e+00 -3.379159999999999942e-01 -9.302960000000000118e-01 1.356829999999999981e+00 -7.621210000000000484e-01 1.380180000000000018e-01 -7.516199999999999548e-01 1.608870999999999940e+00 2.313466000000000022e+00 5.234809999999999741e-01 5.942380000000000440e-01 -6.509369999999999878e-01 -7.993679999999999675e-01 -8.641699999999999937e-01 -6.048470000000000235e-01 9.253510000000000346e-01 -3.143699999999999828e-01 1.121699999999999919e+00 3.250351000000000212e+00 -1.038415000000000088e+00 6.542810000000000015e-01 -2.051210999999999895e+00 -3.779303000000000079e+00 5.248690000000000300e-01 -2.455684999999999896e+00 5.013700000000000101e-02 9.958200000000000385e-02 -9.969919999999999893e-01 -1.366992999999999903e+00 -6.409629999999999495e-01 1.671332000000000040e+00