-1.986743984343571157e+01 -1.449204860337869993e+00 1.784426936784324980e+01 -1.449204860337869993e+00 -5.405953025678916646e+01 7.456336867326910145e+00 1.784426936784324980e+01 7.456336867326910145e+00 5.065245598586042064e+00
-4.514114220861033644e+00 -3.717968744130611292e+00 1.864463889257203633e+01 -3.717968744130611292e+00 -3.069486519058117580e+01 -6.117899542875625762e+00 1.864463889257203633e+01 -6.117899542875625762e+00 -1.331944235056555570e+01
1.980621446911125716e+01 -7.356445453544885105e+00 2.192893123321644921e+01 -7.356445453544885105e+00 -2.888116510862558073e+01 -8.231551764582219377e+00 2.192893123321644921e+01 -8.231551764582219377e+00 1.697060448249145281e+01
-1.907018316652561829e+00 -3.675431913491510993e+00 1.581176153824054431e+01 -3.675431913491510993e+00 -2.853513364315574563e+01 -1.117410479392342104e+01 1.581176153824054431e+01 -1.117410479392342104e+01 7.391349766768612994e+00
-1.710206495269834548e+01 -1.108004459735846225e+01 -5.996724346070334555e+00 -1.108004459735846225e+01 -4.144500876288461910e+01 -1.113333908421104468e+01 -5.996724346070334555e+00 -1.113333908421104468e+01 -2.917383238437095727e+01
-5.359700222052926621e-01 -4.945025816137710528e+00 -7.004764102220711885e-01 -4.945025816137710528e+00 -2.549387851023881169e+01 -2.012562553543721933e+01 -7.004764102220711885e-01 -2.012562553543721933e+01 -1.422728069341177815e+01
-1.378736489168648127e+01 1.045917512869169919e+01 9.617932796692011621e+00 1.045917512869169919e+01 -3.273911290185250067e+01 4.925144623896711593e+00 9.617932796692011621e+00 4.925144623896711593e+00 6.152364614879616944e+00
-1.519114418202557815e+01 5.261199723899130376e+00 1.881154197480824308e+01 5.261199723899130376e+00 -5.098637142257130250e+01 -1.201249596166817390e+01 1.881154197480824308e+01 -1.201249596166817390e+01 -8.007160051910892307e+00
1.934752220710668880e+01 -2.612185301067197596e+00 1.914549979853923389e+01 -2.612185301067197596e+00 -7.283188262793474976e+00 2.840117605910368326e+00 1.914549979853923389e+01 2.840117605910368326e+00 3.182999231565213094e+01
-2.400329882653254643e+01 -1.728462712846791760e+01 2.059834740982357104e+01 -1.728462712846791760e+01 -3.215617853423981387e+01 -1.459759128656983596e-01 2.059834740982357104e+01 -1.459759128656983596e-01 -5.145925262033467895e+00
-1.273791012161450631e+01 1.631520832174354041e+01 1.070467578626500149e+01 1.631520832174354041e+01 -2.523110205308535470e+01 -5.032932311131138592e-01 1.070467578626500149e+01 -5.032932311131138592e-01 8.555371859296847958e+00
4.319296235226379288e+00 5.619991190907328793e+00 3.998506984793750885e+00 5.619991190907328793e+00 -2.819612166945201182e+01 -8.204890737046824020e-03 3.998506984793750885e+00 -8.204890737046824020e-03 2.369934339146989188e+01
-6.522084057315237438e+00 -2.127706266185609429e+00 1.044989749686545366e+01 -2.127706266185609429e+00 -2.964259668501384226e+01 2.496729498996727248e+00 1.044989749686545366e+01 2.496729498996727248e+00 -6.348727313362179991e+00
9.911953076250885619e-01 2.099845823672894074e+00 2.888698444293322254e+01 2.099845823672894074e+00 -3.148564218102367462e+01 3.829376350914883709e+00 2.888698444293322254e+01 3.829376350914883709e+00 4.336215429130383825e+01
8.175741325532932535e+00 1.729920844574161620e+01 1.169557214401475775e+01 1.729920844574161620e+01 -2.827170504571108367e+01 1.429937970874100728e+01 1.169557214401475775e+01 1.429937970874100728e+01 2.272405075553396880e+00
1.557435674275049919e+01 -1.825513438677005240e+01 3.065854767447069307e+00 -1.825513438677005240e+01 2.809030780724053855e+01 -6.902364681118110745e+00 3.065854767447069307e+00 -6.902364681118110745e+00 1.397173636754478210e+01
-1.905162845716960618e+01 -5.516297737098023291e+00 5.700923326010985948e-01 -5.516297737098023291e+00 -4.933193077464871834e+01 -4.737212161965886459e+00 5.700923326010985948e-01 -4.737212161965886459e+00 -1.120955632842550642e+01
-6.358925047221037019e+00 -1.170601519799098966e+01 9.337391480520675913e+00 -1.170601519799098966e+01 -3.343445336050631767e+01 3.781537834652054508e-02 9.337391480520675913e+00 3.781537834652054508e-02 -2.608797380250945430e+00
1.210085747956307678e+01 7.723463101384333562e+00 7.983190402614436465e+00 7.723463101384333562e+00 -3.428503619473673325e+01 1.023384096105751162e+01 7.983190402614436465e+00 1.023384096105751162e+01 -1.807792038721522943e+01
1.150922292300854366e+01 1.033654407543248155e+01 1.640343728729776274e+01 1.033654407543248155e+01 -1.705714081645521318e+01 8.352690051132473315e+00 1.640343728729776274e+01 8.352690051132473315e+00 8.746243311186061575e+00
-7.538207799362424133e+00 6.157227459925390889e+00 -5.123260592852961537e+00 6.157227459925390889e+00 -1.063072663949872521e+01 1.122036287759663242e+00 -5.123260592852961537e+00 1.122036287759663242e+00 -2.458282007693068483e+00
2.439663175258683481e+01 -2.625066539202507432e+00 7.454862701973087979e+00 -2.625066539202507432e+00 -6.922190925403085338e+00 -1.188410729510615838e+01 7.454862701973087979e+00 -1.188410729510615838e+01 2.518783495552050766e+01
-5.568431378882999105e+00 1.378389970010864651e+01 1.398442965524971804e+01 1.378389970010864651e+01 -3.255801889269118732e+01 -1.433900803174967287e+01 1.398442965524971804e+01 -1.433900803174967287e+01 6.100539991957157682e+00
-7.242283761192944702e+00 6.807643681770694677e+00 1.561675086234827781e+01 6.807643681770694677e+00 -2.204274005861660513e+01 -2.544745454818735819e+00 1.561675086234827781e+01 -2.544745454818735819e+00 8.773466548918829488e+00
1.255590042926697159e+01 -7.491744638271110368e+00 1.483095251025677896e+01 -7.491744638271110368e+00 5.802027250227165034e+00 1.049063706573278942e+01 1.483095251025677896e+01 1.049063706573278942e+01 2.312060614749190890e+00
4.550683578214600544e+01 1.389441089695729303e+01 4.198351839418454468e+00 1.389441089695729303e+01 1.887962075277006235e+01 -7.400492871167561937e+00 4.198351839418454468e+00 -7.400492871167561937e+00 4.161333686154397782e+01
-1.846324172066482916e+01 2.703274846984196955e+01 3.518483537047602994e+01 2.703274846984196955e+01 -5.941114830285479087e+01 3.819109331777623240e+00 3.518483537047602994e+01 3.819109331777623240e+00 -1.397949259317552340e+01
-1.689021100467039105e+01 -1.184376132358089428e+01 3.182858423872103160e+01 -1.184376132358089428e+01 -4.273693916906069745e+01 -1.470653328270289961e+01 3.182858423872103160e+01 -1.470653328270289961e+01 -2.422365961791738798e+01
2.202184968061136416e+01 8.308273959248697882e-02 1.410019701481903631e+01 8.308273959248697882e-02 5.238386555821174184e+00 -1.848394513012757479e+00 1.410019701481903631e+01 -1.848394513012757479e+00 1.137297094423747268e+01
-1.369304864266050359e+01 1.255746742838784513e+01 1.200707495842046413e+01 1.255746742838784513e+01 -3.645616730924355409e+01 -9.889933873120957841e+00 1.200707495842046413e+01 -9.889933873120957841e+00 1.080521442825076939e+01
-1.050510094986931087e+01 3.135020198891545373e+00 8.589593871744911624e+00 3.135020198891545373e+00 -4.860767381565404577e+01 -1.611485077120781995e+01 8.589593871744911624e+00 -1.611485077120781995e+01 -3.543069587067331216e+00
-4.604631552883517287e+01 7.159859833382371086e+00 5.032527855447075815e+00 7.159859833382371086e+00 -2.550266059558310872e+01 -3.549539137152443402e+00 5.032527855447075815e+00 -3.549539137152443402e+00 -2.927174224220819454e+01
2.954809945647087943e+01 -4.930282308047329032e-01 4.548559217667494714e+00 -4.930282308047329032e-01 2.539187498960805911e+01 1.304709858918138066e+00 4.548559217667494714e+00 1.304709858918138066e+00 2.951493974255555486e+01
1.690085567587920679e+01 1.662285771493084141e+01 7.688438587258400680e+00 1.662285771493084141e+01 7.196131149555949236e+00 -1.152138030362394261e+00 7.688438587258400680e+00 -1.152138030362394261e+00 2.417334482967878628e+01
-3.935249232286378795e+00 7.510502793805402533e+00 9.556985764838216824e+00 7.510502793805402533e+00 -2.153419202825332235e+01 -5.046561531521959409e+00 9.556985764838216824e+00 -5.046561531521959409e+00 1.689128839294424145e+00
-3.677827753377034714e+00 1.057367469381691727e+01 1.037036630260184289e+01 1.057367469381691727e+01 -2.003844814520868312e+01 2.767946064287738928e+00 1.037036630260184289e+01 2.767946064287738928e+00 3.175494886189096366e+00
5.771670719299809349e+00 6.290746923859958706e+00 1.476822663585821438e+01 6.290746923859958706e+00 -2.185241470994336055e+01 -1.754049384262278188e+00 1.476822663585821438e+01 -1.754049384262278188e+00 1.940812936478178230e+01
2.533459123064094598e+01 6.076588646124601922e+00 1.577232509633440927e+01 6.076588646124601922e+00 3.706506494970548005e+01 1.235881320399987615e+01 1.577232509633440927e+01 1.235881320399987615e+01 3.741207778076087465e+01
-1.325255477208526322e+00 -1.020744358014983177e+01 1.693946033621922709e+01 -1.020744358014983177e+01 -2.239815587936393015e+01 -3.281721077888328786e+00 1.693946033621922709e+01 -3.281721077888328786e+00 2.018515666774360184e+01
5.510351102172641902e+00 -1.000570841883930662e+01 1.219829269412655393e+01 -1.000570841883930662e+01 -1.628038276900031534e+01 -1.435435764573791140e+01 1.219829269412655393e+01 -1.435435764573791140e+01 1.133234465068652552e+00
1.361387466832657545e+01 -1.454394812902778789e+01 1.502655122741674809e+01 -1.454394812902778789e+01 1.548508651350249998e+01 -4.679971140131232055e+00 1.502655122741674809e+01 -4.679971140131232055e+00 2.771157791275560101e+01
-3.238965928933959759e+01 1.379591593018303541e+01 2.122097410994618905e+00 1.379591593018303541e+01 -6.094646190876643743e+01 3.281521790556108709e+00 2.122097410994618905e+00 3.281521790556108709e+00 -3.051457134054371068e+01
-2.147276062344041225e+00 4.120943639145693282e+00 3.863063147409270925e+01 4.120943639145693282e+00 -3.431232993898715478e+01 -1.681226375875626289e+01 3.863063147409270925e+01 -1.681226375875626289e+01 1.553763083391585909e+01
2.015138986192579651e+01 1.043357109077194522e+01 2.083706348354035498e+01 1.043357109077194522e+01 2.133168611471766241e+01 -1.527709940658177612e-01 2.083706348354035498e+01 -1.527709940658177612e-01 2.133535779528130405e+01
2.924659108944902552e+00 3.242438561143749176e+00 4.712512650888467647e+01 3.242438561143749176e+00 -4.725000417516709916e+01 -8.327198882155709470e+00 4.712512650888467647e+01 -8.327198882155709470e+00 8.516846599365653248e+00
-3.615441541427113492e+01 2.954596327411830980e+00 1.225307451806454750e+01 2.954596327411830980e+00 -5.792791166705188743e+01 -3.496791936307619419e-01 1.225307451806454750e+01 -3.496791936307619419e-01 -3.984450737346173099e+01
-7.267110550533467439e+00 -3.597170485637051662e+00 3.556201075444336279e+00 -3.597170485637051662e+00 -2.621609400667761847e+01 -4.132802779804790383e+00 3.556201075444336279e+00 -4.132802779804790383e+00 1.251478772402942319e+01
5.322895995332937780e+00 -3.757028859028739731e+00 2.286148310458890975e+01 -3.757028859028739731e+00 -1.928891581926304255e+01 8.019300075892877189e+00 2.286148310458890975e+01 8.019300075892877189e+00 8.942229938764766572e+00
3.365103217508540467e+01 -6.009346537790157150e+00 1.339338856002982325e+01 -6.009346537790157150e+00 1.164478271330773751e+01 -4.677801320723110834e+00 1.339338856002982325e+01 -4.677801320723110834e+00 4.596019112782405358e+01
-5.546432129286053225e+00 2.646383971204810948e+00 8.091743820840726187e+00 2.646383971204810948e+00 -4.546188773037019359e+01 -1.232014349257238273e+01 8.091743820840726187e+00 -1.232014349257238273e+01 -1.704217836244562179e+01
7.197923860943182817e+00 -3.566530718614829176e+00 1.628319066681467930e+01 -3.566530718614829176e+00 -1.988797209091874407e+01 -1.860469185714944684e+00 1.628319066681467930e+01 -1.860469185714944684e+00 2.373932680683019569e+01
2.021322958232858724e+01 -3.710712306400216765e+00 9.117380685876474544e+00 -3.710712306400216765e+00 -3.603113229046622479e+01 1.123368050760961445e+01 9.117380685876474544e+00 1.123368050760961445e+01 -3.293167256527291187e+01
4.281990243273327224e+01 -1.011158041649298012e+00 2.127406055157081255e+01 -1.011158041649298012e+00 1.522818732510299755e+00 4.104812828613791709e+00 2.127406055157081255e+01 4.104812828613791709e+00 5.885231379528740803e+01
1.384755237929747729e+01 1.908142128558172335e+00 5.769095728767424269e+00 1.908142128558172335e+00 2.443580428414201933e+01 7.672076969120631418e-01 5.769095728767424269e+00 7.672076969120631418e-01 4.235440813178114183e+01
4.152742380150193213e+01 -1.028319909447632696e+01 4.604063595443978585e+00 -1.028319909447632696e+01 8.572824980687791196e+00 1.246255589918950868e+01 4.604063595443978585e+00 1.246255589918950868e+01 5.863017110957171951e+01
6.103476584366180013e+00 -7.459501909049754964e-01 7.268096367001522395e+00 -7.459501909049754964e-01 -1.752898681133752845e+01 -3.489061479584611547e+00 7.268096367001522395e+00 -3.489061479584611547e+00 1.484147772459501580e+00
-2.795929108097962867e+01 1.954917892113626987e+00 1.173956555479023933e+01 1.954917892113626987e+00 -6.527328315384750113e+01 -3.833984574923447131e+00 1.173956555479023933e+01 -3.833984574923447131e+00 -1.785508061473211328e+01
-4.032116146912670729e+01 1.182981378895628666e+01 1.112999154630160881e+01 1.182981378895628666e+01 -7.095715599109693983e+01 3.567343332894629793e+00 1.112999154630160881e+01 3.567343332894629793e+00 -2.195969360987945151e+01
-6.645155989888938564e+01 -3.143312364159326133e+00 -5.402798440880906661e+00 -3.143312364159326133e+00 -7.388722015508403729e+01 -1.557658333385466243e+01 -5.402798440880906661e+00 -1.557658333385466243e+01 -5.576005154366003325e+01
-2.709022177260833608e+00 6.948979966831324573e-01 5.089690971872617098e+00 6.948979966831324573e-01 -2.428943495541800601e+01 -8.660556629029807496e+00 5.089690971872617098e+00 -8.660556629029807496e+00 3.918799646496253786e-01
-2.886914587803144983e+01 -1.559920084447414812e+00 1.847670702282410105e+01 -1.559920084447414812e+00 -3.328458029030982601e+01 -2.209136754449132933e+00 1.847670702282410105e+01 -2.209136754449132933e+00 -1.102901336984144010e+01
2.154189746433042529e+01 7.574150278552834514e+00 1.422286510572669371e+01 7.574150278552834514e+00 -5.554969686733022272e+00 -1.174298093344614458e+01 1.422286510572669371e+01 -1.174298093344614458e+01 1.439544592545093771e+01
-3.879237657745046874e+01 1.715537641273721547e+01 1.508503156587058669e+01 1.715537641273721547e+01 -5.910372471500344460e+01 -1.002936671131513258e+01 1.508503156587058669e+01 -1.002936671131513258e+01 -3.107072497213334827e+01
1.273165721621497104e+00 -5.419865034745603438e+00 8.863051768147172993e+00 -5.419865034745603438e+00 -3.426162920992342720e+01 -1.115934596662966349e+01 8.863051768147172993e+00 -1.115934596662966349e+01 -2.798564359521006750e+01
-2.159441312842741212e+01 -2.823947274021278986e+00 4.968010921128031221e+00 -2.823947274021278986e+00 -3.892134138680317790e+01 -5.501517049728769315e+00 4.968010921128031221e+00 -5.501517049728769315e+00 -2.059410179470897617e+01
-1.431225049943370564e+01 -1.202587236632756884e+01 1.497014915775347710e+01 -1.202587236632756884e+01 -4.327022657164164343e+01 7.852401909500061450e+00 1.497014915775347710e+01 7.852401909500061450e+00 -2.763167408205604403e+01
5.636954391311778778e+01 -8.606572251239882121e+00 5.557153389657244702e+00 -8.606572251239882121e+00 5.283096809810801631e+01 -2.322268157687433998e+00 5.557153389657244702e+00 -2.322268157687433998e+00 6.512530158203601616e+01
1.344292325385634790e+01 8.475536634659510682e+00 2.128100130972310922e+01 8.475536634659510682e+00 -9.660607240082823566e+00 -4.273292777239329432e+00 2.128100130972310922e+01 -4.273292777239329432e+00 4.167385191542021516e+01
-2.615917272938699512e+01 2.335188067749709884e+00 1.848073403138497639e+01 2.335188067749709884e+00 -5.968747569793054453e+01 -1.727068596980620185e+01 1.848073403138497639e+01 -1.727068596980620185e+01 -3.486214583520152566e+00
3.414695775186893911e+01 9.955665812695078998e+00 2.786462499815374372e+01 9.955665812695078998e+00 -1.418055280336037605e+01 9.010182839478176220e+00 2.786462499815374372e+01 9.010182839478176220e+00 8.844329346928923030e+00
3.655586698539730151e+01 -1.130672673170415798e+01 1.133338910597890425e+01 -1.130672673170415798e+01 1.003940939037566693e+01 1.063088112054749779e+01 1.133338910597890425e+01 1.063088112054749779e+01 2.814920043675993711e+01
5.071652815746900522e+00 7.956945868575141745e+00 9.851078926516025902e+00 7.956945868575141745e+00 -3.062255223055467823e+01 -1.174307134578345213e+01 9.851078926516025902e+00 -1.174307134578345213e+01 3.154981047028296359e+01
-2.299706977961610477e+01 -2.214423586527130450e+00 9.702080422503243540e+00 -2.214423586527130450e+00 -3.228127314739082010e+01 9.903620647146624378e+00 9.702080422503243540e+00 9.903620647146624378e+00 -7.216655792058803698e+00
2.717769962888068136e+01 -1.110220260597382058e+01 2.436498528793200080e+01 -1.110220260597382058e+01 -6.863952156090165069e+00 -3.517889233546250827e-01 2.436498528793200080e+01 -3.517889233546250827e-01 3.586452140067915195e+01
6.296845753079542618e+01 -7.328588803898669291e+00 1.502126586220478188e+01 -7.328588803898669291e+00 3.921333978564571510e+01 5.019389214120828946e+00 1.502126586220478188e+01 5.019389214120828946e+00 7.086066254932605091e+01
-2.126549509252037140e+01 -1.663841010511889706e+01 5.438293485115440973e+00 -1.663841010511889706e+01 -4.393713707257717260e+01 -2.639851428580756831e+00 5.438293485115440973e+00 -2.639851428580756831e+00 -2.684634429526476040e+01
6.701097551805140995e+00 -3.930359796312385523e+00 2.964324061391379317e+01 -3.930359796312385523e+00 -9.090924104665118577e+00 -1.758915938116961186e+01 2.964324061391379317e+01 -1.758915938116961186e+01 -1.537509790993374814e+01
1.850789791356490355e+01 1.142321165712849940e+01 4.767338024618353209e+00 1.142321165712849940e+01 1.008456534902683721e+01 -1.856706843967745657e+00 4.767338024618353209e+00 -1.856706843967745657e+00 2.327153054320164927e+01
-2.745626292064408958e+01 5.116321838175551306e+00 1.534049540485686691e+01 5.116321838175551306e+00 -8.938133436481604122e+01 2.499878132776249817e+00 1.534049540485686691e+01 2.499878132776249817e+00 -3.037780687508102773e+01
-1.916347697123431360e+01 1.633311710768369507e-01 1.186971593711117556e+01 1.633311710768369507e-01 -2.956047179014244364e+01 6.338687693384115640e+00 1.186971593711117556e+01 6.338687693384115640e+00 -2.014430444177219925e+01
-8.219765803386891889e+00 -3.390199227109597313e+00 8.853046472957492696e+00 -3.390199227109597313e+00 -3.299503158590366780e+01 1.514282606026645439e+00 8.853046472957492696e+00 1.514282606026645439e+00 -1.543010139540927383e+01
-1.764379673231091461e+00 -3.521491429203574164e+00 2.269406072721800172e+01 -3.521491429203574164e+00 -7.199508623991706102e+00 -1.732419025274339575e+01 2.269406072721800172e+01 -1.732419025274339575e+01 1.287707608799144587e+01
-1.246499480051974551e+01 -4.842635143180979540e+00 1.823616605583364958e+01 -4.842635143180979540e+00 -2.062165247053513184e+01 1.322372908501219690e+01 1.823616605583364958e+01 1.322372908501219690e+01 -4.561392841923795238e+00
-3.205473818999078617e+01 9.257327688218712325e+00 9.513127960296650087e+00 9.257327688218712325e+00 -5.360178841724263776e+01 1.038646519173406002e+00 9.513127960296650087e+00 1.038646519173406002e+00 -3.317139966377139615e+01
-4.771333094840692013e+01 -4.521202126754214845e+00 1.214733679368718011e+00 -4.521202126754214845e+00 -6.726956884918304524e+01 6.436909673099833640e+00 1.214733679368718011e+00 6.436909673099833640e+00 -3.528969892863121771e+01
-2.350167333333374842e+01 5.870764839254554168e+00 -1.273082942651373450e-01 5.870764839254554168e+00 -3.847296959425023744e+01 2.465135966831286218e+00 -1.273082942651373450e-01 2.465135966831286218e+00 -7.887373137880148377e+00
-3.387255504282962448e+01 3.036856254204371997e+00 9.762854867199484143e-01 3.036856254204371997e+00 -5.234304957584979689e+01 -5.211949750318470187e+00 9.762854867199484143e-01 -5.211949750318470187e+00 -2.552974377020987262e+01
5.835038891032359487e+01 1.158804737021658759e+01 1.296231268659880698e+01 1.158804737021658759e+01 3.135095706041920494e+01 1.246940918244318741e+00 1.296231268659880698e+01 1.246940918244318741e+00 5.170221299738729215e+01
-2.465050526816552079e+01 -7.634624546200343254e+00 1.656393315355276386e+01 -7.634624546200343254e+00 -4.290658424109438585e+01 -1.782944960203001372e+01 1.656393315355276386e+01 -1.782944960203001372e+01 -2.879980452758345422e+01
-5.998526882269219485e+00 -2.480155427536474000e-01 6.788489076392738575e+00 -2.480155427536474000e-01 -4.352031625436669060e+01 -1.311453110912706554e+00 6.788489076392738575e+00 -1.311453110912706554e+00 -1.866132656552513325e+01
-1.279016178336761911e+01 2.690020715471557189e+00 1.551556394098994218e+01 2.690020715471557189e+00 -1.810237561238291093e+01 -1.604038490304377618e+01 1.551556394098994218e+01 -1.604038490304377618e+01 -7.403572414821617542e+00
-1.430644392264221487e+01 -9.402336456135818921e+00 7.642830896423618015e+00 -9.402336456135818921e+00 -2.424458175072897603e+01 -4.574320169939981362e+00 7.642830896423618015e+00 -4.574320169939981362e+00 -1.529301786209613034e+01
-2.041842541971690750e+01 -1.040296589061782129e+00 8.685776096723971662e+00 -1.040296589061782129e+00 -2.455192735314680519e+01 8.443167163252748963e+00 8.685776096723971662e+00 8.443167163252748963e+00 -6.496591072331498573e+00
2.971429107735435693e+01 5.182634766125386427e+00 2.923002759595978262e+01 5.182634766125386427e+00 -2.371720305637138537e+00 -5.364112291966416812e+00 2.923002759595978262e+01 -5.364112291966416812e+00 5.120277964208348465e+01
1.673767406627179000e+01 4.547638102572711394e-01 -4.322382224510049609e-01 4.547638102572711394e-01 -1.074430077636189296e+01 -1.285590175556595760e+01 -4.322382224510049609e-01 -1.285590175556595760e+01 3.083391766771479681e+01
1.917850455594697934e+01 7.109103573484380156e+00 1.202339427997430299e+01 7.109103573484380156e+00 5.678837247984898084e+00 5.279567424885226679e+00 1.202339427997430299e+01 5.279567424885226679e+00 3.712356396750074450e-02
-1.071881914865212515e+01 -9.435997853675452962e-01 1.056014144658611364e+01 -9.435997853675452962e-01 -4.119698885964193380e+01 5.957476513572316890e+00 1.056014144658611364e+01 5.957476513572316890e+00 -3.587551327654752598e+00
-4.214403340220185612e+01 -3.602597298193976449e+00 1.170913035016934955e+01 -3.602597298193976449e+00 -6.568835264878073588e+01 4.589912341442266452e+00 1.170913035016934955e+01 4.589912341442266452e+00 -2.329611222368895440e+01
-2.943824287373504944e+01 -5.811724131569356161e-02 3.223045716484060463e+00 -5.811724131569356161e-02 -7.191655222863010977e+01 2.830216074110121216e+00 3.223045716484060463e+00 2.830216074110121216e+00 -4.038638537814815521e+01
-2.162822346500949067e+01 6.877857830754530610e+00 8.583114841849843302e+00 6.877857830754530610e+00 -2.865993662335414527e+01 4.268964817336076578e+00 8.583114841849843302e+00 4.268964817336076578e+00 -9.362552094417148751e+00
