3.246200000000000196e-01 -1.247333999999999943e+00 4.286949999999999927e-01 -1.189828000000000108e+00 -3.522469999999999768e-01 -2.879699999999999968e-02 -4.727900000000000158e-02 1.359440999999999899e+00 7.363889999999999603e-01 1.334729999999999972e+00 -1.074991000000000030e+00 -5.077199999999999769e-02 9.349189999999999445e-01 -2.955090000000000217e-01 3.028399999999999981e-01 -8.046410000000000506e-01 -6.541879999999999917e-01 3.516110000000000069e-01 4.310350000000000015e-01 7.698469999999999480e-01 -6.580009999999999470e-01 9.152959999999999985e-01 6.359299999999999953e-01 -1.965419999999999945e-01 1.138748000000000093e+00 1.046502999999999961e+00 1.375600000000000087e-02 9.502380000000000271e-01 4.272850000000000259e-01 -3.959489999999999954e-01 -1.879812000000000038e+00 -5.757809999999999873e-01 4.481100000000000083e-01 1.048250000000000015e-01 4.966459999999999764e-01 -2.151470000000000049e-01 -1.244218999999999964e+00 1.019185000000000008e+00 2.466669999999999974e-01 -5.681730000000000391e-01 -1.721209999999999962e-01 -8.619069999999999787e-01 -8.450320000000000054e-01 9.111540000000000195e-01 -3.561000000000000276e-02 -1.131787000000000099e+00 -9.798409999999999620e-01 8.308929999999999927e-01 5.975859999999999506e-01 -2.272780000000000078e-01 1.744844000000000062e+00 5.654599999999999904e-02 -1.097285999999999984e+00 1.201006999999999936e+00 -7.087210000000000454e-01 3.670709999999999806e-01 1.282686999999999911e+00 3.487310000000000132e-01 -6.055509999999999504e-01 1.068197000000000063e+00 -9.252749999999999586e-01 -7.860439999999999650e-01 8.897610000000000241e-01 -6.924219999999999819e-01 -1.491147999999999918e+00 5.773600000000000260e-02 -1.080993000000000093e+00 -4.273290000000000144e-01 1.025490000000000013e-01 -1.611145999999999967e+00 1.269474999999999909e+00 -1.224865000000000093e+00 7.653339999999999588e-01 2.581200000000000161e-02 -8.402239999999999709e-01 1.404449999999999865e-01 -7.716840000000000366e-01 1.828881999999999897e+00 7.807520000000000016e-01 1.465459999999999985e+00 3.314010000000000011e-01 6.093659999999999632e-01 -4.622749999999999915e-01 1.165339999999999987e-01 7.491699999999999748e-02 8.177079999999999904e-01 2.077940000000000065e-01 -7.502039999999999820e-01 -2.388699999999999990e-01 2.862169999999999992e-01 9.924220000000000264e-01 4.855110000000000259e-01 -4.652720000000000189e-01 -2.361320000000000086e-01 1.284311999999999898e+00 2.477199999999999888e-02 1.156789000000000067e+00 -1.057588999999999890e+00 7.867899999999999894e-02 -9.958799999999999875e-01 6.402800000000000158e-02 -7.750329999999999719e-01 -1.088097000000000092e+00 -4.341309999999999891e-01 2.988040000000000140e-01 -2.651018000000000097e+00 1.777779999999999916e+00 -7.856109999999999483e-01 -9.057560000000000056e-01 1.045319999999999999e-01 -1.650129999999999930e-01 -4.625870000000000259e-01 2.295409999999999950e-01 -2.352200000000000124e-01 4.922860000000000014e-01 -8.669799999999999729e-01 1.935600000000000098e-01 8.980829999999999647e-01 -1.202733000000000052e+00 -2.832919999999999883e-01 4.447439999999999727e-01 2.689699999999999869e-01 1.479570000000000052e-01 1.919099999999999973e-01 -7.207639999999999603e-01 3.851499999999999924e-01 1.266777000000000042e+00 1.520826000000000011e+00 -1.109555000000000069e+00 -7.940270000000000383e-01 -6.344400000000000039e-01 2.535099999999999854e-02 -4.085670000000000135e-01 -2.220489999999999964e-01 2.159709999999999963e-01 8.361239999999999783e-01 7.231340000000000545e-01 6.491810000000000080e-01 5.846780000000000310e-01 1.538190000000000113e-01 -1.444719999999999893e-01 -4.402059999999999862e-01 -1.790559999999999929e-01 7.796490000000000364e-01 -5.195629999999999971e-01 5.657739999999999991e-01 -9.862600000000000533e-02 -4.682810000000000028e-01 -1.210900000000000032e-01 -3.916830000000000034e-01 -9.618989999999999485e-01 9.033280000000000198e-01 -3.679749999999999965e-01 -2.564509999999999845e-01 -4.874220000000000219e-01 -2.161659999999999970e-01 7.679859999999999465e-01 -6.644499999999999851e-01 5.301499999999999962e-02 6.866039999999999921e-01 4.148350000000000093e-01 1.308110000000000106e-01 -1.492399999999999977e-02 -7.279949999999999477e-01 -2.506149999999999767e-01 1.167018000000000111e+00 -7.984800000000000231e-02 4.547140000000000071e-01 -1.143872999999999918e+00 -3.815600000000000241e-02 -1.441637000000000057e+00 -3.455559999999999743e-01 -1.223554999999999948e+00 1.503670000000000007e-01 -1.858599999999999974e-01 -1.825559999999999961e-01 -1.457110000000000072e-01 4.851730000000000209e-01 6.663099999999999579e-02 4.327429999999999888e-01 -5.827729999999999855e-01 -6.180999999999999828e-01 -1.704900000000000165e-02 -6.386929999999999552e-01 -2.769550000000000067e-01 -2.584520000000000151e-01 5.812979999999999814e-01 1.108843000000000023e+00 -7.433680000000000287e-01 -3.743589999999999973e-01 2.157070000000000098e-01 1.867920000000000136e-01 -3.964750000000000218e-01 6.553719999999999546e-01 -7.746539999999999537e-01 5.480099999999999971e-01 7.646359999999999824e-01 -9.456020000000000536e-01 1.159018000000000104e+00 -1.010143999999999931e+00 4.801810000000000245e-01 5.006749999999999812e-01 5.514130000000000420e-01 -7.153680000000000039e-01 4.667169999999999930e-01 1.229780000000000040e-01 -1.368830000000000047e-01 1.143969999999999931e+00 -1.208790000000000003e-01 -3.945389999999999731e-01 3.260689999999999977e-01 -1.182001999999999997e+00 5.460460000000000313e-01 -2.026199999999999876e-02 -2.681379999999999875e-01 9.035560000000000258e-01 8.482979999999999965e-01 5.164189999999999614e-01 -2.989299999999999943e-02 -1.054559999999999942e-01 -5.571810000000000374e-01 -4.621460000000000012e-01 -1.319339999999999957e-01 7.363200000000000300e-02 9.193240000000000300e-01 1.319460000000000077e-01 -9.811200000000000476e-02 4.208439999999999959e-01 -1.828200000000000103e-01 1.164500000000000084e-02 -2.571459999999999857e-01 -9.739799999999999847e-02 -7.064499999999999946e-02 -6.627520000000000078e-01 4.336690000000000267e-01 -1.341110000000000080e-01 -4.749439999999999773e-01 7.083030000000000159e-01 5.446609999999999507e-01 1.027357000000000076e+00 4.123410000000000131e-01 -3.853429999999999911e-01 -2.356739999999999946e-01 -3.541960000000000108e-01 3.296819999999999751e-01 -1.103145999999999960e+00 2.725850000000000217e-01 8.837899999999999923e-02 -6.449599999999999778e-01 -4.568619999999999903e-01 3.204839999999999911e-01 5.653799999999999798e-02 1.016594999999999915e+00 -1.248299999999999930e-02 5.856399999999999800e-02 1.358076000000000061e+00 -3.454579999999999873e-01 3.866569999999999729e-01 5.491289999999999782e-01 1.346199999999999897e-01 4.549009999999999998e-01 -7.327299999999999924e-01 5.707489999999999508e-01 -7.033650000000000180e-01 -3.073119999999999741e-01 -3.701229999999999798e-01 -4.383110000000000062e-01 -5.128399999999999626e-01 -1.750919999999999976e-01 3.764950000000000241e-01 3.434590000000000143e-01 6.745000000000000127e-03 -1.292339999999999878e-01 4.588960000000000261e-01 7.382079999999999753e-01 -1.554590000000000138e-01 -8.137999999999999401e-03 5.735649999999999915e-01 -3.585000000000000079e-03 -7.380780000000000118e-01 -7.156600000000000461e-02 -9.096530000000000449e-01 2.608019999999999783e-01 -5.036540000000000461e-01 -7.346719999999999917e-01
-6.675799999999999512e-01 9.030639999999999779e-01 2.095259999999999900e-01 5.001889999999999947e-01 -2.013590000000000102e-01 1.808629999999999960e-01 -7.090570000000000483e-01 7.992390000000000327e-01 7.676849999999999508e-01 -4.592439999999999856e-01 4.435319999999999818e-01 1.780779999999999863e-01 -8.748169999999999558e-01 6.824609999999999843e-01 8.354850000000000332e-01 -6.117620000000000280e-01 -7.428369999999999695e-01 2.202590000000000103e-01 -2.480549999999999977e-01 1.029560999999999948e+00 5.168139999999999956e-01 -8.163449999999999873e-01 -8.840599999999999847e-02 -1.500521999999999911e+00 4.786949999999999816e-01 -5.451500000000000096e-02 -1.847267999999999910e+00 3.451299999999999923e-01 1.748378999999999905e+00 -2.988560000000000105e-01 1.349766999999999939e+00 -7.004960000000000075e-01 1.206712000000000007e+00 -1.647745999999999933e+00 5.859339999999999549e-01 -6.352959999999999718e-01 -1.308010000000000006e-01 -9.084459999999999757e-01 1.991390000000000104e-01 -2.993870000000000142e-01 6.893860000000000543e-01 -5.612949999999999884e-01 1.299869999999999914e-01 -5.375020000000000353e-01 5.572179999999999911e-01 -5.714399999999999480e-01 5.990849999999999786e-01 9.665110000000000090e-01 1.165877999999999970e+00 8.317980000000000373e-01 6.304389999999999716e-01 -1.049330000000000096e+00 3.936720000000000219e-01 -1.691122000000000014e+00 -1.103799999999999920e-02 5.360150000000000192e-01 1.690863000000000005e+00 -5.391029999999999989e-01 -1.674549999999999983e+00 -5.657990000000000519e-01 -9.935479999999999867e-01 9.719189999999999774e-01 -1.322349999999999914e-01 -4.271829999999999794e-01 1.166204000000000018e+00 -4.434609999999999941e-01 1.186600000000000099e+00 -5.301930000000000254e-01 3.406139999999999723e-01 -9.858699999999999408e-02 -1.189270000000000049e-01 -6.940020000000000078e-01 -3.541039999999999743e-01 -6.525870000000000282e-01 3.325119999999999743e-01 -3.514799999999999869e-02 -8.061300000000000410e-02 3.146070000000000255e-01 1.896430000000000060e-01 -2.093899999999999928e-01 5.626200000000000090e-01 -1.869300000000000128e-01 -9.179100000000000037e-01 8.755389999999999562e-01 -1.491365999999999969e+00 6.071090000000000098e-01 3.371919999999999917e-01 2.346550000000000025e-01 -1.670249000000000095e+00 8.665299999999999392e-02 5.947240000000000304e-01 -1.454703999999999997e+00 -2.982330000000000259e-01 -2.835539999999999727e-01 9.292550000000000532e-01 -1.233400000000000052e-01 9.838540000000000063e-01 -7.956339999999999524e-01 -8.117180000000000506e-01 8.825650000000000439e-01 -7.510829999999999451e-01 -2.665750000000000064e-01 2.119270000000000043e-01 -5.521719999999999962e-01 -1.298567999999999945e+00 -4.800360000000000182e-01 -4.268250000000000099e-01 1.375020000000000131e-01 3.926540000000000030e-01 -4.390439999999999898e-01 -2.408589999999999898e-01 5.828200000000000047e-01 -4.726790000000000158e-01 3.351609999999999867e-01 6.105439999999999756e-01 4.659699999999999953e-02 7.600109999999999921e-01 3.384840000000000071e-01 -4.416370000000000018e-01 -4.244200000000000195e-01 8.980599999999999694e-01 -1.775059999999999971e-01 1.051258999999999943e+00 -4.578769999999999785e-01 -2.307649999999999979e-01 -3.039749999999999952e-01 7.155899999999999483e-01 8.720999999999999863e-01 4.912900000000000045e-01 3.224380000000000024e-01 -4.459969999999999768e-01 3.845799999999999774e-01 1.117032999999999943e+00 -1.280600000000000072e-01 6.886039999999999939e-01 -2.602260000000000129e-01 -2.069999999999999900e-04 -1.718159999999999965e-01 -3.383180000000000076e-01 -1.121785999999999950e+00 3.462759999999999727e-01 4.454429999999999779e-01 1.151672999999999947e+00 2.611784999999999801e+00 -4.364520000000000066e-01 -1.540009999999999990e-01 -2.317599999999999869e-02 -8.394329999999999847e-01 9.508609999999999562e-01 6.758250000000000091e-01 9.592460000000000431e-01 -6.257089999999999597e-01 -2.526660000000000017e-01 4.692910000000000137e-01 -2.493400000000000061e-01 -5.630009999999999737e-01 3.033629999999999938e-01 -3.470399999999999874e-02 -4.205789999999999806e-01 -4.277940000000000076e-01 6.957599999999999896e-02 4.232589999999999963e-01 -1.167902999999999913e+00 3.829980000000000051e-01 -1.254049999999999887e-01 2.571019999999999972e-01 1.146522999999999959e+00 -7.024569999999999981e-01 -6.075580000000000425e-01 -6.248810000000000198e-01 5.089569999999999927e-01 1.362406000000000006e+00 4.173660000000000148e-01 -1.878259999999999930e-01 1.427113000000000076e+00 1.062400000000000011e-01 3.594100000000000072e-01 3.398990000000000067e-01 -5.589969999999999661e-01 1.565789999999999960e-01 9.319579999999999531e-01 3.309549999999999992e-01 2.053470000000000018e-01 6.106639999999999846e-01 4.946639999999999926e-01 -5.844150000000000178e-01 5.288640000000000008e-01 -2.045589999999999908e-01 2.889689999999999759e-01 1.709060000000000024e-01 1.708499999999999949e-02 -9.716800000000000437e-02 -5.519600000000000201e-02 -6.519430000000000502e-01 1.120041999999999982e+00 -2.745859999999999967e-01 6.582069999999999865e-01 -6.080000000000000335e-03 3.329739999999999922e-01 6.192149999999999599e-01 2.092430000000000123e-01 1.661800000000000083e-02 2.317819999999999880e-01 -1.151259999999999950e+00 -7.131300000000000139e-02 3.374719999999999942e-01 1.639680000000000026e-01 1.861839999999999884e-01 -4.013530000000000153e-01 -5.753350000000000408e-01 3.131599999999999662e-02 -1.000769999999999937e+00 5.216640000000000166e-01 3.033469999999999778e-01 4.725249999999999728e-01 -1.141941000000000095e+00 1.388360999999999956e+00 1.099788999999999906e+00 -1.871659999999999990e-01 4.677620000000000111e-01 -9.061489999999999823e-01 -4.441050000000000275e-01 6.075400000000000245e-02 2.417050000000000032e-01 1.071344000000000074e+00 -8.230549999999999811e-01 -3.400999999999999943e-03 -4.614840000000000053e-01 1.245539999999999980e-01 7.004660000000000331e-01 4.955069999999999752e-01 -1.053269999999999929e+00 -6.442590000000000261e-01 -1.857090000000000130e-01 -9.115180000000000504e-01 2.712080000000000046e-01 5.868109999999999715e-01 -2.371659999999999879e-01 5.185670000000000002e-01 6.961100000000000620e-02 -6.918299999999999450e-01 6.202499999999999680e-02 -2.956280000000000019e-01 -1.382301999999999920e+00 -7.191140000000000310e-01 7.963810000000000056e-01 3.483979999999999855e-01 -1.311720000000000108e-01 2.056300000000000142e-02 -9.147239999999999815e-01 6.435490000000000377e-01 -5.173149999999999693e-01 -3.517100000000000087e-02 1.290330000000000088e-01 -4.339239999999999764e-01 -2.338050000000000128e-01 4.365000000000000130e-02 -1.039061000000000012e+00 -2.332349999999999979e-01 6.786389999999999922e-01 -9.932910000000000350e-01 2.715989999999999793e-01 2.011159999999999892e-01 -5.161400000000000432e-01 3.514869999999999939e-01 -4.777529999999999832e-01 -4.181030000000000024e-01 -2.063059999999999894e-01 1.706930000000000114e-01 -6.503200000000000092e-01 1.200200000000000052e-02 -7.946180000000000465e-01 -1.264467999999999925e+00 -7.508900000000000297e-02 -4.222319999999999962e-01 1.172746999999999984e+00 -7.179830000000000378e-01 2.324640000000000040e-01 -8.550000000000000308e-03 8.880799999999999805e-02 -3.813989999999999880e-01 1.142109999999999931e-01 4.166139999999999843e-01 -7.029239999999999933e-01 -1.220304999999999973e+00
-1.024953000000000003e+00 8.536249999999999671e-01 -1.339104999999999990e+00 1.246855000000000047e+00 7.482659999999999867e-01 -1.736939999999999873e-01 -3.980159999999999809e-01 -8.722809999999999730e-01 1.106165999999999983e+00 1.494623999999999953e+00 1.164692999999999978e+00 9.518899999999999584e-02 1.513079000000000063e+00 5.030099999999999849e-02 -1.383490000000000109e+00 -6.199780000000000291e-01 6.663550000000000306e-01 1.135834999999999928e+00 -7.367329999999999712e-01 -1.440711000000000075e+00 -1.187127999999999961e+00 -1.563528000000000029e+00 -1.471505000000000063e+00 5.949229999999999796e-01 -4.185260000000000091e-01 2.478500000000000147e-02 -1.235071999999999948e+00 -7.251889999999999725e-01 7.134690000000000198e-01 3.208260000000000001e-01 -6.566800000000000415e-01 -2.587180000000000035e-01 -7.889690000000000314e-01 -4.342530000000000001e-01 -2.362661999999999818e+00 -1.204371000000000080e+00 8.823710000000000164e-01 -3.291859999999999786e-01 9.063520000000000465e-01 -8.014010000000000300e-01 1.241557000000000022e+00 -1.132009999999999961e-01 -6.742730000000000112e-01 6.710599999999999898e-01 3.162600000000000133e-02 -7.079469999999999930e-01 -2.902700000000000072e-02 -1.902790000000000037e-01 -8.512920000000000487e-01 1.215399999999999953e-01 1.188000000000000037e-03 4.848009999999999819e-01 1.210569000000000006e+00 -2.054709999999999870e-01 -1.573517000000000055e+00 3.569490000000000163e-01 5.488370000000000193e-01 1.422900000000000054e+00 5.361199999999999993e-02 -1.140845000000000109e+00 -1.260499000000000036e+00 3.345200000000000257e-02 -1.950603000000000087e+00 1.223970000000000002e+00 6.461620000000000141e-01 -3.044439999999999924e-01 1.183078999999999992e+00 -1.950223999999999958e+00 7.556359999999999744e-01 2.919019999999999948e-01 1.447239999999999915e-01 6.676279999999999992e-01 -1.628139999999999865e-01 -1.274472000000000049e+00 -8.281349999999999545e-01 -1.729549999999999976e-01 1.026316999999999924e+00 -8.808880000000000043e-01 4.340700000000000114e-01 8.261049999999999782e-01 -3.057940000000000103e-01 2.540629999999999833e-01 -1.134077999999999919e+00 6.532900000000000373e-01 2.768309999999999937e-01 5.169799999999999951e-01 -1.434468999999999994e+00 -9.453650000000000109e-01 6.625910000000000410e-01 1.531365000000000087e+00 8.709350000000000147e-01 -1.360369999999999913e-01 -1.168606999999999951e+00 -1.186139999999999972e-01 -7.876509999999999900e-01 -2.294259999999999911e-01 1.031606999999999941e+00 -6.031349999999999767e-01 7.509799999999999809e-02 -6.062999999999999813e-03 4.345849999999999991e-01 -2.684179999999999899e-01 8.557019999999999627e-01 -6.815149999999999819e-01 -1.696939999999999893e+00 1.139418999999999960e+00 -7.925520000000000342e-01 -2.823680000000000079e-01 -5.367220000000000324e-01 4.283640000000000225e-01 -5.364139999999999464e-01 2.272019999999999873e-01 6.334400000000000031e-01 6.320080000000000142e-01 -4.179320000000000257e-01 1.122502000000000111e+00 4.161500000000000199e-01 3.183679999999999843e-01 9.935199999999999587e-02 1.197100000000000074e-02 -5.256199999999999761e-01 -2.616699999999999929e-02 -6.189339999999999842e-01 -2.573650000000000104e-01 1.490070000000000006e-01 -7.575939999999999896e-01 -3.217920000000000225e-01 -2.821420000000000039e-01 4.132719999999999727e-01 -1.390366999999999909e+00 -3.471380000000000021e-01 -7.401750000000000274e-01 -2.334599999999999870e-02 -8.836950000000000083e-01 1.026607999999999965e+00 -5.330200000000000216e-02 -8.421870000000000189e-01 2.950510000000000077e-01 7.462159999999999904e-01 3.322680000000000078e-01 -2.258310000000000040e-01 9.977880000000000082e-01 6.565250000000000252e-01 -9.146840000000000526e-01 3.198289999999999744e-01 4.144579999999999931e-01 1.244579000000000102e+00 8.236050000000000315e-01 -9.691549999999999887e-01 4.119500000000000245e-02 -9.405729999999999924e-01 8.763039999999999718e-01 4.533980000000000232e-01 1.144991000000000092e+00 5.682669999999999666e-01 1.154193999999999942e+00 -2.360710000000000031e-01 -4.492610000000000214e-01 2.740389999999999771e-01 5.516790000000000305e-01 -1.342705999999999955e+00 -9.809309999999999974e-01 -2.076860000000000095e-01 3.309200000000000336e-02 -1.705859999999999876e-01 9.435679999999999623e-01 -8.003599999999999604e-02 7.609789999999999610e-01 9.746000000000000218e-01 1.621110000000000051e-01 9.468590000000000062e-01 -1.520386999999999933e+00 -1.557029999999999914e+00 4.489480000000000137e-01 -1.388629999999999864e-01 -6.822489999999999943e-01 7.609890000000000265e-01 -1.311536999999999953e+00 -7.688260000000000094e-01 8.279630000000000045e-01 7.686260000000000314e-01 1.041428999999999938e+00 7.646999999999999631e-02 -1.316523000000000110e+00 -8.309710000000000152e-01 1.156000000000000083e-02 -2.291500000000000134e-02 1.398570000000000091e-01 1.933600000000000041e-01 -1.072872000000000048e+00 -9.692840000000000344e-01 -5.777600000000000097e-02 6.231569999999999609e-01 4.434899999999999953e-01 3.119800000000000004e-02 7.519510000000000360e-01 4.520600000000000313e-02 -7.019140000000000379e-01 1.583589999999999998e-01 -4.089500000000000079e-02 7.717979999999999841e-01 -3.474550000000000138e-01 1.873180000000000123e-01 -3.921149999999999913e-01 -1.499620000000000120e-01 -6.967459999999999765e-01 5.914519999999999778e-01 -8.527500000000000357e-02 -1.809640000000000137e-01 -2.469669999999999921e-01 4.444790000000000130e-01 8.938270000000000381e-01 2.848749999999999893e-01 -7.075470000000000370e-01 5.801269999999999483e-01 8.711010000000000142e-01 3.025430000000000064e-01 1.981430000000000136e-01 1.225532999999999983e+00 8.680080000000000018e-01 7.097120000000000095e-01 4.135599999999999693e-02 1.092749999999999971e-01 6.972080000000000499e-01 1.045959999999999945e-01 -4.067599999999999688e-02 8.624169999999999892e-01 -1.808730000000000060e-01 -5.640760000000000218e-01 -2.879500000000000115e-02 -3.180700000000000194e-02 -3.255859999999999865e-01 -2.624940000000000051e-01 4.375699999999999729e-02 -2.811279999999999890e-01 -3.365830000000000211e-01 1.217653000000000096e+00 -2.549080000000000235e-01 -4.640980000000000105e-01 2.723169999999999757e-01 -3.868200000000000111e-02 5.207039999999999447e-01 -4.820100000000000079e-02 -1.015360000000000013e-01 4.689030000000000142e-01 5.163000000000000055e-03 1.693560000000000065e-01 -3.891839999999999744e-01 2.513040000000000274e-01 -5.663040000000000296e-01 -6.818710000000000049e-01 1.415143999999999957e+00 -4.671060000000000212e-01 1.134999999999999941e-03 -3.276500000000000246e-02 4.361760000000000081e-01 4.090400000000000147e-01 -1.227854999999999919e+00 1.798559999999999881e-01 2.523179999999999867e-01 5.695999999999999674e-03 2.787149999999999905e-01 -1.610149999999999915e-01 9.454090000000000549e-01 3.640959999999999752e-01 -2.392370000000000052e-01 -4.032569999999999766e-01 3.054939999999999878e-01 -2.934019999999999961e-01 -1.739340000000000053e-01 6.847889999999999810e-01 8.370969999999999800e-01 1.016971000000000069e+00 -1.775229999999999864e-01 5.653500000000000192e-01 -7.772250000000000547e-01 -1.961370000000000058e-01 1.245560000000000000e+00 5.415489999999999471e-01 -6.297690000000000232e-01 9.858699999999999408e-02 -2.916110000000000091e-01 9.812060000000000226e-01 8.906999999999999640e-02 -2.272569999999999868e-01
1.413109999999999922e-01 -3.853999999999999787e-02 1.098840999999999957e+00 1.633660000000000112e-01 -5.081800000000000206e-02 -3.696599999999999886e-02 7.871200000000000419e-02 3.481839999999999935e-01 1.465329999999999966e-01 -3.816100000000000048e-02 -1.701815999999999995e+00 6.658650000000000402e-01 2.375520000000000131e-01 1.360899999999999888e-01 8.389539999999999775e-01 4.239269999999999983e-01 -1.642926000000000109e+00 -5.207239999999999647e-01 5.297209999999999974e-01 8.857340000000000213e-01 1.466072999999999960e+00 -1.226018999999999970e+00 7.796520000000000117e-01 -1.964990000000000070e-01 -3.240259999999999807e-01 6.943259999999999987e-01 1.205955000000000110e+00 7.203330000000000011e-01 6.819490000000000274e-01 -9.449210000000000109e-01 -7.853609999999999758e-01 4.560330000000000217e-01 -1.360789999999999944e+00 6.083990000000000231e-01 -4.834800000000000209e-01 8.414810000000000345e-01 -1.452559999999999962e-01 -4.541499999999999704e-02 -1.176200000000000023e-01 5.015979999999999883e-01 -1.936470000000000136e-01 -6.575069999999999526e-01 -1.342824999999999935e+00 -1.077584000000000097e+00 8.330429999999999779e-01 -1.911505999999999927e+00 4.861449999999999938e-01 -1.701999999999999902e-01 -1.625717999999999996e+00 -7.042890000000000539e-01 -3.602159999999999807e-01 -6.392459999999999809e-01 -4.755900000000000127e-01 -8.635890000000000510e-01 1.462289999999999979e-01 -8.218499999999999417e-02 3.463939999999999797e-01 8.077689999999999593e-01 -8.921799999999999731e-01 -1.561868999999999952e+00 -6.314119999999999733e-01 1.039233000000000073e+00 3.419960000000000222e-01 -1.165437999999999974e+00 -1.140950000000000020e-01 -3.481779999999999875e-01 -1.848039999999999961e-01 -1.083771999999999958e+00 -7.483670000000000044e-01 -2.955679999999999974e-01 -7.075989999999999780e-01 8.325970000000000315e-01 -3.605439999999999756e-01 -3.665430000000000077e-01 -1.166220000000000034e-01 5.992399999999999949e-01 1.267989999999999950e-01 6.975869999999999571e-01 1.113148999999999944e+00 -8.037050000000000027e-01 7.338590000000000391e-01 3.567940000000000000e-01 3.275290000000000146e-01 -2.294519999999999893e-01 -8.351439999999999975e-01 1.350864000000000065e+00 -2.763530000000000153e-01 1.270621999999999918e+00 9.012310000000000043e-01 -7.487129999999999619e-01 -2.773519999999999874e-01 -6.121600000000000374e-01 1.114659999999999956e-01 -1.158050000000000052e-01 -1.075560999999999989e+00 3.523330000000000073e-01 1.097256000000000009e+00 -5.571610000000000174e-01 -3.517480000000000051e-01 8.531600000000000295e-02 1.209098000000000006e+00 5.448119999999999630e-01 3.683770000000000100e-01 2.237850000000000117e-01 4.752489999999999770e-01 -1.134285999999999905e+00 7.601710000000000411e-01 3.830339999999999856e-01 7.787950000000000150e-01 -7.930399999999999949e-02 1.679759999999999864e-01 1.363371000000000111e+00 -6.801970000000000516e-01 1.359431999999999974e+00 8.707700000000000162e-02 2.090509999999999868e-01 1.001576000000000022e+00 -3.331399999999999917e-01 1.616059999999999997e-01 -8.517179999999999751e-01 -2.563139999999999863e-01 -5.755320000000000435e-01 1.816969999999999974e-01 -1.604160000000000030e-01 3.029390000000000138e-01 -9.504960000000000075e-01 3.373769999999999825e-01 4.031500000000000083e-01 -3.833230000000000248e-01 3.069099999999999953e-02 -9.254149999999999876e-01 -7.686099999999999877e-02 3.686980000000000257e-01 -2.058760000000000034e-01 3.692619999999999791e-01 6.101480000000000237e-01 7.787290000000000045e-01 -6.091099999999999987e-02 6.770340000000000247e-01 1.079914000000000041e+00 -6.767180000000000417e-01 -4.209410000000000096e-01 3.758340000000000014e-01 -5.732610000000000205e-01 -8.510990000000000499e-01 6.702380000000000004e-01 2.595000000000000084e-02 -1.024796000000000040e+00 1.026615999999999973e+00 1.712701000000000029e+00 -1.345836999999999950e+00 5.738119999999999887e-01 4.453499999999999820e-02 1.230509999999999937e-01 -1.191286000000000067e+00 -2.074860000000000038e-01 -1.261929999999999996e-01 -4.949040000000000106e-01 -7.259799999999999587e-01 6.156730000000000258e-01 2.651720000000000188e-01 2.657329999999999970e-01 -5.342189999999999994e-01 -3.556299999999999739e-02 1.475529999999999897e-01 4.023109999999999742e-01 1.976469999999999894e-01 4.265999999999999653e-02 7.105679999999999774e-01 1.105885999999999925e+00 -1.811109999999999942e-01 -9.458870000000000333e-01 -8.046119999999999939e-01 -4.601370000000000182e-01 -2.077799999999999925e-01 3.703549999999999898e-01 3.033359999999999945e-01 -4.719000000000000104e-03 1.219298999999999911e+00 -1.128762000000000043e+00 1.717162000000000077e+00 1.499724000000000057e+00 -1.460670000000000024e-01 -1.506231000000000098e+00 -4.965269999999999961e-01 -8.513300000000000312e-01 -6.743710000000000537e-01 -3.181300000000000239e-01 -5.883249999999999869e-01 1.089865000000000084e+00 -3.134149999999999991e-01 2.111100000000000129e-02 -1.713459999999999983e-01 4.694530000000000092e-01 2.271710000000000118e-01 -2.050530000000000130e-01 -7.145399999999999530e-01 9.512549999999999617e-01 6.136209999999999720e-01 -5.308049999999999713e-01 7.151450000000000307e-01 -7.777410000000000156e-01 -1.929569999999999896e-01 7.200109999999999566e-01 1.393179999999999974e-01 -1.924359999999999959e-01 9.425600000000000644e-02 -1.777279999999999971e-01 -3.577350000000000252e-01 -3.588689999999999936e-01 -1.752479999999999871e-01 1.554899999999999893e-01 -3.861290000000000000e-01 3.488040000000000029e-01 4.274089999999999834e-01 -1.117056000000000049e+00 -1.483329999999999926e-01 2.856799999999999895e-01 -1.135704999999999965e+00 8.159500000000000086e-02 -1.205769000000000091e+00 -7.516070000000000251e-01 4.904410000000000158e-01 -8.781459999999999821e-01 3.153949999999999809e-01 -2.185060000000000058e-01 -2.234079999999999955e-01 -5.896799999999999958e-02 -4.997469999999999968e-01 1.078179999999999972e-01 -4.860199999999999937e-02 6.448319999999999608e-01 -1.415220000000000089e-01 -5.016810000000000436e-01 9.605479999999999574e-01 1.304213000000000067e+00 -2.393100000000000088e-02 -5.717670000000000252e-01 5.340700000000000308e-02 1.012364999999999959e+00 -4.220499999999999946e-02 4.485460000000000003e-01 -2.074129999999999863e-01 1.688679999999999903e-01 9.746000000000000496e-02 -5.455290000000000417e-01 4.816329999999999778e-01 -8.369760000000000533e-01 9.061909999999999688e-01 1.194280000000000064e-01 2.038500000000000034e-02 -7.515900000000000358e-02 6.612289999999999557e-01 -6.941799999999999360e-02 -6.888229999999999631e-01 1.703719999999999957e-01 -4.701799999999999730e-02 -4.393989999999999840e-01 2.329340000000000022e-01 -8.761499999999999844e-02 1.294572000000000056e+00 5.227150000000000407e-01 -2.449799999999999894e-02 7.759279999999999511e-01 2.818000000000000192e-03 -1.870700000000000141e-02 4.956499999999999795e-02 8.405390000000000361e-01 2.004000000000000139e-03 -5.077920000000000211e-01 -3.440900000000000070e-01 1.028400000000000009e-01 4.524560000000000248e-01 -2.072050000000000003e-01 -8.727669999999999595e-01 -5.823080000000000478e-01 6.106500000000000261e-01 1.582310000000000105e-01 -3.458289999999999975e-01 1.508200000000000096e-01 1.125891999999999893e+00 5.778640000000000443e-01 -4.332759999999999945e-01 -1.814880000000000104e-01 -4.041500000000000092e-01