-5.808759999999999479e-01 -2.352151999999999799e+00 1.129361000000000059e+00 -1.411856000000000000e+00 -9.740670000000000162e-01 -3.951830000000000065e-01 3.868917000000000161e+00 -5.476899999999999824e-02 -2.317400000000000015e-01 -1.039039999999999964e-01 -2.781499999999999945e-02 8.339029999999999498e-01 -6.063389999999999613e-01 -8.246280000000000276e-01 4.095880000000000076e-01 -5.556090000000000195e-01 -1.261482999999999910e+00 -6.485000000000000313e-03 1.162659999999999944e-01 -4.789280000000000204e-01 -1.318815000000000071e+00 -9.003280000000000172e-01 9.987890000000000379e-01 1.770285000000000108e+00 5.578509999999999858e-01 6.862249999999999739e-01 -2.436808999999999781e+00 7.097799999999999665e-01 -9.698329999999999451e-01 1.357809999999999961e+00 -1.838629000000000069e+00 1.047415999999999903e+00 -5.092900000000000205e-02 1.625667999999999891e+00 1.741387000000000018e+00 3.821100000000000191e-02 -1.505235000000000101e+00 -3.175583000000000045e+00 2.198374999999999968e+00 2.719500000000000028e+00 -1.078630999999999895e+00 -1.737730000000000108e-01 -5.122189999999999799e-01 2.989345000000000141e+00 2.453421000000000074e+00 4.401900000000000257e-02 -9.510459999999999470e-01 -1.630816000000000043e+00 -2.050499999999999892e-02 5.058770000000000211e-01 4.477079999999999949e-01 1.174142000000000019e+00 5.909020000000000383e-01 1.313110999999999917e+00 4.012589999999999768e-01 3.313963000000000214e+00 -4.729414000000000229e+00 1.116816999999999949e+00 1.840292999999999957e+00 2.079593000000000025e+00 -2.451800000000000090e-01 -1.118025999999999964e+00 -1.000537000000000010e+00 -1.032599999999999962e+00 2.675049000000000010e+00 -1.851771999999999974e+00 1.422738999999999976e+00 -1.858236999999999917e+00 2.744479999999999809e+00 1.007899000000000100e+00 1.019265000000000088e+00 -3.836371000000000198e+00 8.726359999999999673e-01 2.062689999999999912e+00 2.189262999999999959e+00 8.661050000000000137e-01 -1.437561000000000089e+00 -3.633970000000000256e-01 -2.755396000000000178e+00 -1.045215999999999923e+00 8.032430000000000403e-01 7.557999999999999614e-03 -1.794989999999999919e-01 -2.939401000000000153e+00 -7.977349999999999719e-01 3.452748999999999846e+00 5.315800000000000525e-01 -1.093930000000000041e-01 7.036149999999999904e-01 -8.149570000000000425e-01 -4.199080000000000035e-01 1.404203000000000090e+00 -2.681250000000000022e-01 7.986300000000000343e-02 -9.466830000000000522e-01 -1.497419000000000056e+00 -7.812130000000000463e-01 1.820602999999999971e+00 1.501166000000000000e+00 -1.930300000000000071e-02 2.082809999999999939e-01 1.560775999999999941e+00 2.373005000000000031e+00 -2.328241999999999923e+00 -2.993569999999999842e-01 -7.243299999999999739e-02 -1.127723000000000031e+00 7.330919999999999659e-01 -1.226750000000000063e-01 7.585119999999999640e-01 1.669740000000000113e-01 -2.623070000000000124e-01 -1.072330999999999923e+00 -1.016110999999999986e+00 -1.429311999999999916e+00 5.399159999999999515e-01 7.597800000000000387e-02 -2.468480000000000119e-01 -8.248079999999999856e-01 2.660849999999999937e+00 8.105369999999999520e-01 6.103549999999999809e-01 -1.237972999999999990e+00 6.387570000000000192e-01 -1.311083999999999916e+00 1.128730999999999929e+00 2.792080000000000117e-01 -4.597899999999999765e-01 1.216239999999999988e+00 3.336447999999999858e+00 -2.517656999999999812e+00 -1.080870000000000025e-01 1.020309999999999967e-01 -2.154252000000000056e+00 3.112929999999999864e-01 -2.531550000000000189e-01 9.352350000000000385e-01 -2.774580999999999964e+00 3.239369999999999750e-01 7.663510000000000044e-01 1.735878000000000032e+00 -9.131000000000000227e-02 -2.592079999999999940e-01 -1.335665000000000102e+00 -1.202099999999999974e-01 -2.126159999999999994e-01 -1.546386999999999956e+00 -1.123237999999999959e+00 -8.368830000000000435e-01 -4.800760000000000027e-01 -2.456629999999999925e-01 1.278192999999999913e+00 -8.427700000000000469e-02 5.558859999999999912e-01 7.954700000000000659e-02 -1.386249999999999982e-01 9.670800000000000507e-01 3.343852000000000046e+00 3.174409999999999954e+00 -3.445710000000000162e-01 -4.459049999999999958e-01 -5.837510000000000199e-01 4.402249999999999774e-01 5.210639999999999716e-01 -2.510720000000000174e-01 -4.244939999999999825e-01 1.227869999999999934e-01 -6.154709999999999903e-01 -2.744539999999999758e-01 -1.048013000000000083e+00 -2.845095999999999847e+00 5.634310000000000151e-01 1.019719000000000042e+00 1.697127000000000052e+00 -5.815559999999999619e-01 -2.867297999999999902e+00 -4.654809999999999781e-01 -1.638055999999999957e+00 1.081973000000000074e+00 -1.635181999999999913e+00 -7.084200000000000219e-02 1.390689999999999982e-01 1.460294999999999899e+00 -2.628226000000000173e+00 -7.766720000000000290e-01 1.903642999999999974e+00 -1.434258999999999951e+00 -7.397650000000000059e-01 -1.591340999999999894e+00 1.176725000000000021e+00 2.498406000000000127e+00 -3.351939999999999920e-01 1.052478999999999942e+00 6.315619999999999568e-01 -2.919559999999999933e-01 2.455549999999999955e-01 2.504836000000000062e+00 1.894128000000000034e+00 -1.111768000000000089e+00 -1.807979000000000003e+00 -3.433869999999999978e-01 7.771839999999999860e-01 -1.005174000000000012e+00 -1.914361999999999897e+00 -4.631129999999999969e-01 -1.008769000000000027e+00 9.068850000000000522e-01 5.743789999999999729e-01 -1.282291000000000070e+00 -2.114993000000000123e+00 -2.875144999999999840e+00 5.615670000000000384e-01 1.534840999999999900e+00 1.856244999999999923e+00 -4.082205000000000084e+00 2.642117999999999967e+00 2.290172000000000097e+00 4.754319999999999879e+00 -1.362883000000000067e+00 -5.354689999999999728e-01 1.415160000000000029e-01 -1.090456000000000092e+00 -2.132712999999999859e+00 -2.146968999999999905e+00 -1.512879000000000085e+00 8.469410000000000549e-01 -1.707300000000000137e-02 1.538235000000000019e+00 -2.086030000000000106e-01 6.058989999999999654e-01 -1.165871000000000102e+00 -4.124990000000000046e-01 -1.036900000000000044e-01 1.009023000000000003e+00 3.683150000000000035e-01 -9.885460000000000358e-01 -6.125389999999999446e-01 8.544850000000000501e-01 2.358379999999999921e-01 -4.611060000000000159e-01 -2.366530000000000022e-01 -5.319519999999999804e-01 -5.090949999999999642e-01 1.052726000000000051e+00 -2.885228999999999822e+00 1.154420000000000029e-01 9.079190000000000316e-01 -1.380525000000000002e+00 -9.707090000000000440e-01 1.318716999999999917e+00 3.034080000000000110e-01 -2.012970000000000037e-01 -4.827200000000000241e-02 8.627089999999999481e-01 9.007239999999999691e-01 -1.747122999999999982e+00 1.115988999999999898e+00 -1.079941999999999958e+00 -2.770730000000000137e-01 -3.099219999999999753e-01 -1.663850000000000051e+00 5.055239999999999734e-01 1.522989999999999899e-01 1.435359999999999969e-01 -1.993617999999999890e+00 -7.202279999999999793e-01 1.911035000000000039e+00 6.686199999999999921e-01 3.149948000000000192e+00 -3.625030000000000197e-01 -1.477022999999999975e+00 -9.028310000000000501e-01 1.063298999999999994e+00 -1.719119999999999981e+00 7.526939999999999742e-01 1.261517999999999917e+00 9.637879999999999781e-01 3.126880000000000215e-01 -5.592409999999999881e-01 -1.041285000000000016e+00 -4.348049999999999971e-01 1.832194000000000100e+00 -6.020229999999999748e-01 4.836840000000000028e-01 7.273770000000000513e-01
8.231669999999999821e-01 3.425596999999999781e+00 -3.333180000000000032e+00 1.765193000000000012e+00 4.833919999999999884e-01 1.997236999999999929e+00 2.009841000000000211e+00 -1.900100000000000122e-01 -1.221001000000000003e+00 2.524777999999999967e+00 5.009149999999999991e-01 -1.706018000000000034e+00 7.314260000000000206e-01 2.080680000000000029e-01 -1.630182000000000020e+00 -2.464079999999999881e-01 -2.340580000000000105e+00 -6.546060000000000212e-01 2.603232000000000212e+00 -3.125809999999999977e-01 1.983508999999999967e+00 2.049320000000000030e-01 7.569280000000000452e-01 7.249100000000000543e-01 -6.601559999999999651e-01 1.313914999999999944e+00 4.446599999999999997e-01 -9.874450000000000172e-01 -9.125130000000000186e-01 3.537779999999999814e-01 -3.380812000000000150e+00 1.291071000000000080e+00 9.613620000000000498e-01 2.693824000000000218e+00 1.687521000000000049e+00 -3.666799999999999921e-02 4.672290000000000054e-01 -4.251960000000000184e-01 -7.142999999999999350e-02 -2.203539999999999943e-01 -8.568689999999999918e-01 -4.312360000000000082e-01 -8.993919999999999693e-01 7.041450000000000209e-01 -3.268989999999999951e-01 -1.154914999999999914e+00 5.776930000000000121e-01 1.065200000000000001e-02 -5.942610000000000392e-01 -8.174379999999999979e-01 1.943163999999999891e+00 -7.449540000000000051e-01 -6.855830000000000535e-01 -3.457219999999999738e-01 1.030002000000000084e+00 1.389089999999999936e+00 -2.076115999999999850e+00 -9.286830000000000362e-01 -3.197900000000000187e-01 -3.068799999999999861e-01 -1.699651000000000023e+00 1.392298000000000036e+00 -9.815270000000000383e-01 -7.367620000000000280e-01 6.673400000000000443e-01 3.614450999999999858e+00 -4.120980000000000198e-01 -2.356608000000000036e+00 -3.353010000000000157e-01 3.082101999999999897e+00 1.554133999999999904e+00 -1.140695000000000014e+00 3.495298000000000016e+00 -1.532500999999999891e+00 -2.280089999999999895e-01 1.705681999999999920e+00 2.758303000000000171e+00 3.153982000000000063e+00 1.576915999999999984e+00 -1.678328000000000042e+00 -1.378300000000000011e-02 2.247501999999999889e+00 8.792950000000000488e-01 1.765274000000000010e+00 3.289759999999999907e-01 3.280399999999999983e-01 3.727770000000000250e-01 2.223065000000000069e+00 2.824955000000000105e+00 1.567892000000000063e+00 8.153589999999999449e-01 -6.715499999999999803e-01 -1.931262000000000034e+00 -2.499560000000000115e-01 -2.641116999999999937e+00 -3.991540000000000088e-01 4.629659999999999886e-01 7.056289999999999507e-01 7.558299999999999741e-02 -2.498019999999999907e+00 1.188511000000000095e+00 1.169359999999999983e-01 1.697579999999999922e-01 -3.610229999999999828e-01 -9.313449999999999784e-01 -1.147238999999999898e+00 -1.241150000000000031e-01 -6.029360000000000275e-01 -1.368899999999999978e-02 -8.718960000000000043e-01 2.595950000000000202e-01 -1.908646999999999982e+00 -8.608160000000000256e-01 -1.446340000000000126e-01 8.878869999999999818e-01 9.123480000000000478e-01 -1.056986999999999899e+00 -5.279840000000000089e-01 -1.569949999999999957e-01 -3.147690000000000210e-01 4.440959999999999908e-01 -1.113890999999999964e+00 9.974500000000000033e-02 2.210580000000000045e-01 2.035250000000000004e+00 1.563399999999999859e-02 2.114530000000000021e-01 1.117761000000000005e+00 5.980069999999999553e-01 -4.059429999999999983e-01 -3.239279999999999937e-01 -1.014726000000000017e+00 -2.024643000000000193e+00 1.505694000000000088e+00 9.297469999999999901e-01 -4.544460000000000166e-01 6.856290000000000440e-01 -1.221287000000000011e+00 -7.224600000000000466e-02 8.165980000000000461e-01 1.025069999999999926e+00 -1.944836999999999927e+00 -6.128130000000000521e-01 -7.397270000000000234e-01 2.791250000000000120e-01 -2.924610000000000265e-01 1.182967000000000102e+00 3.779100000000000237e-01 -2.228630000000000055e-01 -4.008699999999999763e-02 -1.786326999999999998e+00 3.266069999999999807e-01 -2.187899999999999914e-02 -1.507127000000000105e+00 -1.461357000000000017e+00 1.867026000000000074e+00 9.797799999999999565e-02 -8.709390000000000187e-01 -1.188615999999999895e+00 -1.460339999999999971e-01 5.247659999999999547e-01 2.378589999999999871e-01 -2.762738000000000138e+00 -1.963953000000000060e+00 1.686223000000000027e+00 7.223579999999999446e-01 -2.163444000000000145e+00 -9.795859999999999568e-01 1.643409999999999871e-01 3.371930000000000205e-01 1.309841000000000033e+00 -2.892509999999999803e-01 -1.442393999999999954e+00 -9.448029999999999484e-01 2.213236000000000203e+00 -1.537061999999999928e+00 1.037330000000000085e+00 -6.362160000000000037e-01 -9.376870000000000482e-01 -3.370119999999999783e-01 -2.874419000000000057e+00 -1.738999999999999921e-02 -1.112606999999999902e+00 1.124854000000000021e+00 1.055758999999999892e+00 -7.004799999999999915e-02 9.334620000000000140e-01 8.770000000000000018e-03 -7.859779999999999545e-01 -3.345440000000000080e-01 -3.154080000000000217e-01 3.671159999999999979e-01 -1.542404000000000108e+00 -4.897520000000000207e-01 1.597614000000000090e+00 -1.448280000000000012e+00 -1.074840000000000018e+00 -9.178899999999999837e-01 7.518179999999999863e-01 -5.816970000000000196e-01 2.072340000000000015e-01 5.039519999999999555e-01 -1.280110000000000081e+00 2.619400000000000062e-01 6.117380000000000040e-01 -7.417310000000000292e-01 -9.887860000000000538e-01 -5.650169999999999915e-01 -1.269045999999999896e+00 8.416989999999999750e-01 -2.166760000000000075e-01 -3.426350000000000229e-01 -3.111169999999999769e-01 1.559179000000000093e+00 -3.129890000000000172e-01 5.599939999999999918e-01 6.223830000000000195e-01 -1.902840000000000087e-01 6.405020000000000158e-01 -3.282390000000000030e-01 -1.366103000000000067e+00 -1.371132000000000017e+00 -5.180960000000000010e-01 8.145550000000000290e-01 -1.177712000000000092e+00 -2.596769999999999912e-01 1.101012000000000102e+00 8.438229999999999897e-01 -1.451919999999999877e-01 2.791523999999999894e+00 -1.488208999999999893e+00 -7.496829999999999883e-01 -1.582919999999999883e-01 -9.918699999999999739e-02 -2.401330000000000131e-01 -1.074756999999999962e+00 4.361209999999999809e-01 4.428800000000000098e-02 8.161929999999999463e-01 -1.005189999999999972e-01 9.104910000000000503e-01 9.651340000000000474e-01 -6.878919999999999479e-01 9.470399999999999929e-01 5.016369999999999996e-01 2.611700000000000133e-02 -1.052089999999999970e+00 -7.752029999999999754e-01 -8.359900000000000109e-01 1.882880000000000109e-01 1.112632999999999983e+00 -4.903390000000000248e-01 1.914452999999999960e+00 -7.952240000000000419e-01 1.074073999999999973e+00 -1.395138999999999907e+00 6.486480000000000024e-01 6.339400000000000590e-02 -8.277989999999999515e-01 9.605900000000000549e-02 4.531529999999999725e-01 2.278163000000000160e+00 1.333163000000000098e+00 -2.133239999999999803e+00 3.958430000000000004e-01 -1.241452000000000000e+00 -1.428935999999999984e+00 9.446860000000000257e-01 2.975900000000000073e-02 -2.426300000000000123e-01 -3.274357000000000184e+00 -4.091099999999999737e-01 2.227504000000000151e+00 -2.174560000000000104e-01 -7.129000000000000614e-02 9.570290000000000186e-01 6.991610000000000325e-01 6.393299999999999539e-01 -3.351709999999999967e-01 -3.460434999999999928e+00 4.724280000000000146e-01 2.517751000000000072e+00 -5.196220000000000283e-01 -1.719673999999999925e+00 -1.124822999999999906e+00
-2.484709999999999974e-01 8.522619999999999640e-01 4.073800000000000338e-02 -3.587800999999999796e+00 4.113229999999999942e-01 -2.181059999999999943e-01 1.096673000000000009e+00 -3.539889999999999981e-01 4.281249999999999778e-01 -2.927643000000000217e+00 -6.770110000000000294e-01 2.015225000000000044e+00 -1.838656000000000068e+00 1.101328000000000085e+00 -1.053522000000000070e+00 -5.987679999999999669e-01 1.048702000000000023e+00 1.009184000000000081e+00 -1.307447000000000026e+00 -1.529713000000000100e+00 -3.760560000000000014e-01 1.889617000000000102e+00 1.784469999999999945e-01 -7.064589999999999481e-01 2.762229999999999963e-01 -3.466170000000000084e-01 3.298429999999999973e-01 -1.053228000000000053e+00 -1.468768000000000074e+00 -1.380079000000000056e+00 -2.247270000000000101e-01 5.904369999999999896e-01 -1.448360000000000092e+00 3.143305999999999933e+00 -2.335367999999999888e+00 -2.620194000000000134e+00 2.567201999999999984e+00 1.669883000000000006e+00 -1.285191999999999890e+00 5.544350000000000112e-01 -3.665800000000000169e-01 -6.170860000000000234e-01 9.737170000000000547e-01 -4.953549999999999898e-01 1.452199999999999880e-01 6.667889999999999651e-01 2.231501000000000179e+00 -5.381230000000000180e-01 1.142058000000000018e+00 -4.215949999999999975e-01 6.689880000000000271e-01 2.271131000000000011e+00 -1.768437000000000037e+00 3.234971999999999959e+00 2.320622000000000185e+00 1.353989000000000109e+00 -3.454067000000000220e+00 -1.262785000000000046e+00 1.148816999999999977e+00 1.961883999999999961e+00 3.985170999999999797e+00 -5.450249999999999817e-01 3.509829999999999894e-01 1.205421000000000076e+00 2.957965999999999873e+00 -4.166619999999999768e-01 1.353498000000000090e+00 -7.712630000000000319e-01 8.551539999999999697e-01 1.548588000000000076e+00 2.135359999999999925e+00 8.392239999999999700e-01 -2.118770000000000098e-01 -1.401350000000000096e-01 -1.777058000000000026e+00 8.177830000000000377e-01 3.221299999999999858e-02 5.162440000000000362e-01 1.625374000000000096e+00 -2.576572000000000084e+00 -2.361302999999999930e+00 1.247319999999999984e+00 1.876860999999999891e+00 3.260447999999999791e+00 4.672720000000000207e-01 2.808205000000000062e+00 4.123858000000000246e+00 2.117309999999999803e+00 -2.642415000000000180e+00 -1.242075999999999958e+00 -2.673775000000000013e+00 1.791047999999999973e+00 1.604154000000000080e+00 -6.041990000000000416e-01 -1.623512999999999984e+00 1.420946999999999960e+00 4.412869999999999848e-01 -3.071789999999999798e-01 1.048786999999999914e+00 -1.013187000000000060e+00 8.940799999999999859e-01 1.817280999999999924e+00 -1.978177000000000074e+00 -1.891976000000000102e+00 -3.533951000000000064e+00 1.282391999999999976e+00 -6.795719999999999539e-01 -2.580112000000000183e+00 -1.202031000000000072e+00 -8.385289999999999688e-01 -8.643380000000000507e-01 -1.125769999999999937e+00 -1.653097000000000039e+00 -2.422327999999999815e+00 -2.684579999999999744e-01 -8.145029999999999770e-01 4.697669999999999901e-01 -3.388017000000000056e+00 2.277219000000000104e+00 4.275652000000000008e+00 1.199314999999999909e+00 9.389389999999999681e-01 2.668130000000000224e-01 5.671549999999999647e-01 -3.167769999999999753e-01 -2.608699000000000101e+00 -4.107939999999999925e-01 -2.195529999999999982e-01 1.270107000000000097e+00 -4.712299999999999822e-02 -1.108433000000000002e+00 2.349209999999999798e+00 -5.169259999999999966e-01 -3.882109999999999728e-01 4.715250000000000274e-01 -2.883410000000000140e-01 5.233790000000000386e-01 -1.251438999999999968e+00 2.921599999999999892e-02 9.970069999999999766e-01 1.520521000000000011e+00 -1.351880000000000026e-01 -1.273890000000000022e-01 -1.258340999999999932e+00 -1.453154999999999974e+00 6.451770000000000005e-01 9.376659999999999995e-01 1.804216999999999960e+00 1.222674999999999956e+00 9.845129999999999715e-01 8.778559999999999697e-01 1.287882999999999889e+00 1.001346999999999987e+00 7.345099999999999962e-01 2.472214999999999829e+00 -3.232999999999999763e-02 8.922090000000000298e-01 2.520569999999999755e-01 -1.488164999999999960e+00 -8.308119999999999949e-01 7.455319999999999725e-01 3.461210000000000120e-01 -1.215719999999999995e-01 9.896610000000000129e-01 1.339785000000000004e+00 6.544159999999999977e-01 -2.423210000000000086e-01 9.588689999999999714e-01 -7.040729999999999489e-01 -9.682100000000000428e-02 -6.946440000000000392e-01 -8.240400000000000502e-02 7.049769999999999648e-01 1.225022999999999973e+00 -1.128900000000000042e-02 -1.485273999999999983e+00 4.138109999999999844e-01 2.181562000000000001e+00 6.410130000000000550e-01 8.447200000000000264e-01 -4.580810000000000159e-01 -1.064635999999999916e+00 1.398463999999999929e+00 -6.842209999999999681e-01 -1.459888999999999992e+00 1.170743000000000089e+00 1.348953999999999986e+00 -5.938999999999999835e-01 -7.908469999999999667e-01 6.297899999999999332e-02 -1.630141000000000062e+00 -1.713310000000000111e+00 -3.242200000000000082e-01 3.596199999999999952e-01 1.583404999999999951e+00 -9.832000000000000461e-02 6.743989999999999707e-01 1.945786000000000016e+00 1.676798999999999928e+00 9.667399999999999605e-02 -1.129142000000000090e+00 -1.138023999999999925e+00 -2.001870000000000038e-01 -1.306143999999999972e+00 -1.008051999999999948e+00 -2.452020000000000088e+00 -6.145429999999999504e-01 -8.821999999999999842e-01 -1.547779999999999934e+00 2.591180000000000150e-01 -6.236140000000000017e-01 -2.483934999999999782e+00 -9.229680000000000106e-01 -8.645730000000000359e-01 -1.860271000000000008e+00 -3.728000000000000064e-02 5.954880000000000173e-01 -1.361269999999999980e-01 7.845619999999999816e-01 5.669480000000000075e-01 -3.589200000000000029e-02 -4.399790000000000090e-01 -1.925464999999999982e+00 -2.723637000000000086e+00 6.773630000000000484e-01 -1.176145999999999914e+00 -1.225073000000000079e+00 5.592359999999999554e-01 -1.323768000000000056e+00 -3.920350000000000223e-01 -3.037469999999999892e-01 -3.033759999999999790e-01 8.531210000000000182e-01 -3.899730000000000141e-01 8.925729999999999498e-01 -6.169670000000000432e-01 6.448199999999999765e-02 1.117453000000000030e+00 -6.497380000000000377e-01 -1.653926000000000007e+00 -1.395113000000000048e+00 1.154160000000000075e+00 -4.466300000000000270e-01 -1.229907000000000084e+00 3.423099999999999754e-02 -1.058966000000000074e+00 -5.014819999999999833e-01 1.631140000000000090e-01 -3.480190000000000228e-01 1.446312999999999960e+00 -1.818726000000000065e+00 -3.537475000000000147e+00 -1.452612999999999932e+00 -1.765269999999999895e-01 2.999069999999999792e-01 1.020723999999999965e+00 4.364660000000000206e-01 -1.245779999999999943e-01 8.943950000000000511e-01 -1.427190000000000125e-01 2.920800000000000063e-01 -2.789340000000000153e-01 1.013967999999999980e+00 6.463670000000000249e-01 1.604600000000000123e-02 2.089224000000000192e+00 -3.167380000000000195e-01 -3.652299999999999991e-01 2.029548000000000130e+00 -1.642435000000000089e+00 -1.222226999999999952e+00 -8.851999999999999869e-01 1.771058000000000021e+00 -1.956862000000000101e+00 1.536891999999999925e+00 1.232369999999999993e-01 -2.437950000000000117e-01 4.169229999999999881e-01 -1.106441000000000008e+00 9.900470000000000104e-01 1.587731999999999921e+00 -1.835677999999999921e+00 -2.989447999999999883e+00 1.101161000000000056e+00 2.499499999999999986e-02
-2.167799999999999935e-02 -2.972930999999999990e+00 -1.791279999999999983e+00 -1.093293000000000070e+00 5.912610000000000365e-01 9.385430000000000161e-01 3.093060000000000254e-01 -2.235786000000000051e+00 -6.691960000000000131e-01 3.117218999999999962e+00 -3.506111000000000200e+00 5.362981000000000442e+00 -2.025774999999999881e+00 -4.070619999999999794e-01 4.542800000000000171e-01 2.761850000000000138e-01 1.176611999999999991e+00 4.128629999999999800e-01 -4.646310000000000162e-01 -2.188759999999999872e-01 -1.035184000000000104e+00 3.233289999999999775e-01 1.404878000000000071e+00 1.254596000000000044e+00 1.886546999999999974e+00 -3.168438999999999783e+00 -1.892311000000000076e+00 -2.010174999999999823e+00 2.419887000000000121e+00 7.856049999999999978e-01 9.920959999999999779e-01 2.118571000000000204e+00 -2.359214999999999840e+00 1.008049999999999891e+00 2.442829999999999835e+00 3.898376999999999981e+00 -1.805244000000000071e+00 6.642719999999999736e-01 -1.314338999999999924e+00 1.622902999999999984e+00 1.318154000000000048e+00 2.907723999999999975e+00 -1.909243999999999941e+00 5.550841000000000136e+00 -2.484874000000000027e+00 1.877548999999999912e+00 -1.714963000000000015e+00 -9.851830000000000309e-01 -5.079559999999999631e-01 -7.774360000000000159e-01 -2.097802000000000167e+00 4.728729999999999878e-01 -2.571356000000000197e+00 2.425692000000000181e+00 -8.239170000000000105e-01 -5.468220000000000303e-01 -9.455360000000000431e-01 -1.570864000000000038e+00 -3.329130000000000145e-01 -1.789689000000000085e+00 7.472100000000000408e-01 -1.277484000000000064e+00 -8.907869999999999955e-01 -7.670069999999999943e-01 -3.219890000000000252e-01 8.341880000000000406e-01 -1.150401999999999925e+00 -1.430933000000000010e+00 -2.271839999999999971e-01 4.777049999999999907e-01 6.836640000000000494e-01 -9.672089999999999854e-01 -6.027010000000000423e-01 3.611491000000000007e+00 6.408899999999999320e-02 -2.326670000000000127e-01 -2.380529999999999868e-01 3.630269999999999886e-01 -8.199520000000000142e-01 1.239643000000000050e+00 -1.648330000000000073e-01 7.436080000000000467e-01 1.009999000000000091e+00 -1.688580000000000081e-01 1.370846000000000009e+00 2.918468999999999980e+00 2.805877000000000177e+00 -3.218490000000000073e+00 -1.272240000000000038e-01 2.015099999999999947e-01 -5.350759999999999961e-01 1.615337000000000023e+00 -8.808620000000000339e-01 1.103275999999999923e+00 -9.942860000000000031e-01 2.783499999999999863e-02 1.036780000000000063e-01 2.064874000000000098e+00 -6.282529999999999504e-01 1.685631000000000101e+00 -3.042670000000000097e-01 -8.854549999999999921e-01 -8.382640000000000091e-01 -1.165334000000000092e+00 -3.446321999999999885e+00 2.634148999999999852e+00 -5.628509999999999902e-01 2.513851999999999975e+00 -3.378390000000000004e-01 2.037431000000000214e+00 2.039038000000000128e+00 5.640340000000000353e-01 -1.383545999999999943e+00 -1.444438000000000111e+00 5.369720000000000049e-01 -1.608948999999999963e+00 1.462641999999999998e+00 1.035177000000000014e+00 3.458410000000000095e-01 -1.159561999999999982e+00 -3.767880000000000118e-01 2.727570000000000272e-01 -1.117146999999999890e+00 -1.010877999999999943e+00 7.648949999999999916e-01 4.314390000000000169e-01 1.046057000000000015e+00 -1.068516999999999939e+00 1.881955000000000044e+00 -1.618360000000000076e-01 -1.296453000000000078e+00 4.154999999999999805e-01 -1.042464000000000057e+00 -7.503899999999999459e-02 -1.136527999999999983e+00 -1.388304999999999900e+00 8.585190000000000321e-01 3.138520000000000199e-01 9.969390000000000196e-01 4.940160000000000107e-01 3.317019999999999968e-01 -6.886189999999999811e-01 -8.243660000000000432e-01 2.340025999999999939e+00 6.967839999999999590e-01 -1.020448000000000022e+00 -7.404779999999999696e-01 5.656360000000000277e-01 -5.385490000000000554e-01 -4.467979999999999730e-01 1.148031999999999941e+00 1.284520000000000106e-01 -1.179958999999999980e+00 -1.400339999999999918e+00 3.963999999999999642e-03 1.543957999999999942e+00 -1.249608000000000052e+00 2.977460000000000218e+00 -2.783380000000000187e+00 3.943000000000000324e-03 6.642080000000000206e-01 1.046600000000000030e-01 1.257338000000000067e+00 -2.737660000000000093e-01 -2.085653000000000201e+00 1.836117999999999917e+00 1.347695000000000087e+00 1.431388000000000105e+00 -2.679730000000000167e-01 1.384225000000000039e+00 9.469410000000000327e-01 1.852193999999999896e+00 -7.585199999999999720e-01 2.147148000000000057e+00 -7.406509999999999483e-01 -2.250160999999999856e+00 -2.957179999999999809e-01 7.855159999999999920e-01 -1.155920000000000003e-01 1.422047999999999979e+00 9.224620000000000042e-01 -1.557838000000000056e+00 -6.553080000000000016e-01 -5.403120000000000145e-01 -5.652270000000000350e-01 5.104269999999999641e-01 -2.660963999999999885e+00 2.397600999999999871e+00 -4.068286999999999765e+00 1.270640000000000103e-01 -5.582970000000000432e-01 1.532461000000000073e+00 1.553671000000000024e+00 -1.891220000000000123e-01 4.547390000000000043e-01 -1.041250999999999927e+00 2.268580000000000041e-01 4.863350000000000173e-01 -3.892709999999999781e-01 -8.413779999999999593e-01 3.556259999999999977e-01 1.112422000000000022e+00 1.761000000000000065e-01 1.182638999999999996e+00 -3.322599999999999998e-01 1.122217999999999938e+00 9.176790000000000225e-01 -2.805750000000000188e-01 1.655310000000000115e-01 8.399590000000000112e-01 -1.648411999999999988e+00 2.176255999999999968e+00 6.250080000000000080e-01 -1.038173000000000012e+00 1.633772000000000002e+00 5.796400000000000441e-01 5.721340000000000314e-01 2.314740000000000131e-01 4.800479999999999747e-01 -2.247909999999999908e-01 -5.659610000000000474e-01 8.540290000000000381e-01 -3.385574000000000083e+00 -1.377863999999999978e+00 -2.403744000000000103e+00 -1.146925999999999890e+00 1.379040000000000044e+00 1.891712999999999978e+00 -1.058103000000000016e+00 -2.183673000000000197e+00 -1.408733999999999931e+00 1.896654000000000062e+00 -1.784149999999999903e-01 1.148530000000000051e+00 1.606513999999999998e+00 -3.437350000000000128e-01 -5.611030000000000184e-01 1.608400000000000107e-01 1.441630000000000134e-01 2.861899999999999999e-01 -1.609061000000000075e+00 7.442689999999999584e-01 -3.353758000000000017e+00 -1.161913999999999891e+00 5.318500000000000311e-02 -3.183940000000000103e-01 5.892669999999999852e-01 7.449599999999999556e-01 -4.213009999999999811e-01 9.932539999999999702e-01 -4.016299999999999870e-01 4.921099999999999919e-01 -3.875950000000000228e-01 -1.616039000000000003e+00 -1.215090000000000059e-01 -1.560961000000000043e+00 -3.627676999999999818e+00 2.174621000000000137e+00 -5.084060000000000246e-01 -1.293759999999999910e-01 -1.005894000000000066e+00 8.561689999999999579e-01 1.100399999999999989e-02 -1.710659999999999958e-01 6.730720000000000036e-01 3.398390000000000022e-01 -2.515566999999999886e+00 1.839388000000000023e+00 -1.154258000000000006e+00 3.006789999999999741e-01 2.888450000000000184e-01 9.141299999999999426e-02 2.217339999999999867e-01 -7.190699999999999870e-02 -1.160249000000000086e+00 -1.577518999999999894e+00 1.820175000000000098e+00 -2.472779999999999978e-01 -9.036720000000000308e-01 7.829429999999999445e-01 -1.266407999999999978e+00 -5.602070000000000105e-01 -7.626810000000000533e-01 3.055200000000000138e-01 6.625940000000000163e-01