-8.979504103799999939e+02
-9.053243952300000501e+02
-9.103866045900000472e+02
-9.039015666100000317e+02
-9.103852113699999791e+02
-9.113785194600000068e+02
-9.151728655399999752e+02
-9.138479557499999828e+02
-9.045958712499999592e+02
-9.182306181100000231e+02
-8.990907151500000509e+02
-9.182142229600000292e+02
-8.911020529600000373e+02
-9.130899682499999699e+02
-9.217582481700000017e+02
-8.968081104999999980e+02
-9.113919656299999588e+02
-8.976960131600000068e+02
-9.116557361400000445e+02
-8.975194387699999652e+02
-8.954422164600000542e+02
-9.134932843899999853e+02
-8.983513166200000342e+02
-9.080122671300000547e+02
-9.019836109300000544e+02
-9.007336540600000490e+02
-9.212091348300000391e+02
-9.200190375900000390e+02
-9.068833555999999589e+02
-9.163069065199999841e+02
-9.011541234000000031e+02
-9.104291478899999674e+02
-9.124851316499999712e+02
-8.878381644199999982e+02
-9.164765588699999626e+02
-9.080040856900000108e+02
-9.027703937100000076e+02
-9.103743785599999683e+02
-8.969276304100000061e+02
-9.139532421699999531e+02
-9.161904520199999524e+02
-9.209922967100000051e+02
-9.173599380599999904e+02
-9.137549443000000338e+02
-8.941269455799999832e+02
-9.168348860700000387e+02
-8.952282606700000542e+02
-9.015598525799999834e+02
-9.202961870899999894e+02
-9.205548368099999834e+02
-9.009637543200000209e+02
-8.976172703199999887e+02
-9.204171108299999560e+02
-8.978037795899999765e+02
-9.008079039699999839e+02
-8.913386016800000107e+02
-9.147491714599999568e+02
-9.002337939599999572e+02
-9.097873752499999682e+02
-8.894651347899999791e+02
-9.061572979000000032e+02
-9.217181225000000495e+02
-9.030869292099999939e+02
-9.161850683000000117e+02
-9.188560066999999663e+02
-9.049898196899999903e+02
-8.965571538499999633e+02
-9.207433694699999478e+02
-9.091910519900000054e+02
-9.117464409799999885e+02
-9.081631916100000126e+02
-8.984480429599999525e+02
-8.981103305999999975e+02
-9.195407244599999785e+02
-8.942935425399999758e+02
-9.185875781500000130e+02
-9.194616494699999976e+02
-9.168128033299999515e+02
-9.194823159600000508e+02
-9.097795292299999801e+02
-9.133719182999999475e+02
-9.046171977400000515e+02
-8.971057371800000055e+02
-9.008433414200000016e+02
-9.051024544099999503e+02
-9.197063452800000505e+02
-9.118634189599999900e+02
-9.159118429699999524e+02
-8.978404929900000297e+02
-8.982777716699999928e+02
-9.119506683399999929e+02
-9.148241154300000062e+02
-9.108271264400000291e+02
-9.045031257800000049e+02
-9.008982697200000302e+02
-9.148102678200000355e+02
-9.219690395999999737e+02
-9.200929277499999444e+02
-9.059899329800000487e+02
-8.998242787699999781e+02
