2.970599999999999907e-01 7.196939999999999449e-01 -1.077285000000000048e+00 1.093906000000000045e+00 -1.816830000000000112e-01 -5.712990000000000013e-01 -1.957208999999999977e+00 -8.009209999999999940e-01 -7.844360000000000221e-01 8.759670000000000512e-01 -1.056878999999999902e+00 -1.925081999999999960e+00 -4.961459999999999759e-01 -9.483470000000000510e-01 -4.005070000000000019e-01 6.078980000000000494e-01 9.620199999999999585e-02 -5.329279999999999573e-01 -6.260029999999999761e-01 -4.194162000000000390e+00 7.271889999999999743e-01 2.500621999999999900e+00 5.610399999999999832e-01 -1.473943999999999921e+00 -2.262878000000000167e+00 -1.920207999999999915e+00 -4.836847999999999814e+00 -6.968990000000000462e-01 1.182387999999999995e+00 1.350216000000000083e+00 1.094417999999999891e+00 -9.619339999999999558e-01 -1.391645999999999939e+00 -1.335018000000000038e+00 -1.156738999999999962e+00 7.765659999999999785e-01 2.151339000000000112e+00 -1.891054000000000013e+00 -1.266393000000000102e+00 -5.676719999999999544e-01 -1.435999999999999993e-03 -2.122227000000000086e+00 1.706026000000000042e+00 1.281049000000000104e+00 -2.932049999999999934e-01 2.458130000000000037e-01 2.764329999999999843e-01 9.489229999999999610e-01 1.381728999999999985e+00 3.184146999999999839e+00 2.403302000000000049e+00 -7.054529999999999967e-01 -2.941920000000000091e-01 8.169539999999999580e-01 -2.148915999999999826e+00 -7.696030000000000371e-01 -1.205405999999999977e+00 -5.329760000000000053e-01 -2.783945999999999810e+00 2.145366000000000106e+00 1.188247000000000053e+00 2.416364999999999874e+00 2.600764999999999993e+00 1.606687999999999894e+00 3.525444999999999940e+00 1.429548999999999959e+00 -9.946549999999999558e-01 8.416719999999999757e-01 -1.891478999999999910e+00 -9.211600000000000343e-02 -2.022733000000000114e+00 2.384428999999999910e+00 -2.919448000000000043e+00 -1.635042000000000106e+00 7.671820000000000306e-01 1.856862999999999930e+00 -1.886498000000000008e+00 2.015899999999999803e+00 -1.098599999999999993e-01 -1.335369999999999890e-01 -1.026870000000000005e-01 -1.631347000000000103e+00 -9.505719999999999725e-01 -8.131319999999999659e-01 1.884759000000000073e+00 3.634959999999999858e-01 3.485778999999999961e+00 2.743149999999999977e+00 2.854201999999999906e+00 -7.736250000000000071e-01 2.533164999999999889e+00 -7.866429999999999811e-01 -2.483241000000000032e+00 2.711516000000000037e+00 -1.233775000000000066e+00 3.053109000000000073e+00 1.350124000000000102e+00 -5.199869999999999770e-01 1.932300000000000129e-01 2.697459999999999858e-01 -2.120458000000000176e+00 -1.670379000000000058e+00 2.452310000000000045e-01 -6.524809999999999777e-01 2.166520000000000112e-01 1.491490000000000038e-01 1.585736000000000034e+00 -3.111490000000000089e-01 1.580475999999999992e+00 -1.046720000000000095e+00 5.914679999999999938e-01 -1.008990000000000026e-01 -4.026400000000000118e-02 -1.222147000000000094e+00 1.490134999999999987e+00 1.499320000000000097e-01 3.753919999999999924e+00 9.384489999999999776e-01 1.959805999999999937e+00 -3.290989999999999749e-01 -7.807680000000000176e-01 -6.130179999999999518e-01 7.875529999999999475e-01 -5.702329999999999899e-01 -1.547107999999999928e+00 -9.320380000000000331e-01 5.691410000000000080e-01 -3.798480000000000190e-01 -3.474369999999999958e-01 2.347630999999999801e+00 -2.183386000000000049e+00 4.160778999999999783e+00 1.154681000000000068e+00 1.201210000000000055e-01 1.325299000000000005e+00 3.885390000000000232e-01 6.148740000000000316e-01 1.844133000000000022e+00 1.609641000000000099e+00 -2.320380000000000109e+00 -1.290861000000000036e+00 9.789930000000000021e-01 -1.925199999999999967e-01 2.924149999999999805e-01 2.521031999999999940e+00 -7.886750000000000149e-01 1.494969999999999910e-01 -5.540819999999999634e-01 -5.440089999999999648e-01 -1.684846000000000066e+00 3.822880000000000167e-01 1.229695999999999900e+00 5.552829999999999711e-01 -2.042082000000000175e+00 4.076719999999999788e-01 -1.301990000000000092e-01 5.043549999999999978e-01 1.064956000000000014e+00 -7.185409999999999853e-01 -1.422666999999999904e+00 2.731419999999999959e-01 -1.652987999999999902e+00 -1.117210000000000009e-01 1.531076000000000104e+00 7.193749999999999867e-01 4.522070000000000256e-01 -5.728400000000000158e-02 -6.124699999999999589e-01 -1.945883000000000029e+00 -9.056499999999999551e-01 2.227505999999999986e+00 -1.234890000000000043e+00 1.076014000000000026e+00 -7.196090000000000542e-01 2.185918000000000028e+00 1.911445000000000061e+00 2.257772999999999808e+00 1.660790000000000044e-01 -5.122189999999999799e-01 -1.204874000000000001e+00 7.155219999999999914e-01 -2.033389999999999920e-01 2.586919999999999775e-01 1.346859999999999946e+00 -2.894300000000000206e-01 2.963580000000000103e-01 3.035519999999999885e-01 2.803304999999999936e+00 -2.858817999999999859e+00 -2.929059999999999997e-01 1.803170000000000051e-01 2.821649999999999991e-01 -2.041678999999999800e+00 2.038975000000000204e+00 1.172300000000000009e-01 -1.715009999999999868e-01 3.265500000000000069e-01 1.048677000000000081e+00 -1.319693999999999923e+00 3.374848000000000070e+00 2.248829999999999885e+00 -1.286081000000000030e+00 -1.681110000000000104e+00 -7.364490000000000203e-01 -2.745493999999999879e+00 -1.824576999999999893e+00 -1.995468000000000020e+00 -6.040180000000000549e-01 -1.484749000000000096e+00 -1.549490000000000034e+00 -1.261622000000000021e+00 1.340311000000000030e+00 3.435880000000000045e-01 -1.685718999999999967e+00 -4.198439999999999950e-01 1.012269999999999975e-01 1.632436999999999916e+00 -3.236831000000000014e+00 2.199876000000000165e+00 -1.440266000000000046e+00 1.633536000000000099e+00 1.187094000000000094e+00 -3.243325000000000014e+00 -8.515220000000000011e-01 2.217740000000000045e+00 -1.840299999999999922e-02 1.558589000000000002e+00 9.103290000000000548e-01 -2.237899999999999889e-01 8.585559999999999858e-01 9.465000000000000080e-01 -3.954909999999999815e-01 -7.754879999999999551e-01 1.053710000000000063e-01 3.662960000000000105e-01 1.155051000000000050e+00 -1.565198000000000089e+00 1.643610000000000015e+00 1.031441000000000052e+00 -1.371933000000000069e+00 -9.329429999999999668e-01 -4.005059999999999731e-01 1.225848999999999966e+00 -6.910690000000000444e-01 1.461999000000000049e+00 -3.703069999999999973e-01 -3.124669999999999948e-01 -3.603080000000000171e-01 -1.484282000000000101e+00 -1.580308000000000046e+00 1.401998999999999995e+00 -1.473640000000000061e+00 -2.642027000000000125e+00 1.435279999999999889e-01 -1.945103000000000026e+00 -5.522949999999999804e-01 -8.966999999999999971e-02 -5.397389999999999688e-01 -1.028111999999999915e+00 1.517595000000000027e+00 -1.495861000000000107e+00 -2.072941999999999840e+00 9.930919999999999748e-01 1.309042000000000039e+00 6.256000000000000449e-02 2.565839999999999788e-01 -9.342409999999999881e-01 1.211268000000000011e+00 -5.111050000000000315e-01 -1.472855999999999943e+00 -5.785400000000000265e-02 2.373639999999999972e+00 -8.848840000000000039e-01 -6.052539999999999587e-01 -1.514132000000000033e+00 -1.328408000000000033e+00
-4.880840000000000178e-01 -1.603607000000000005e+00 -4.209289999999999976e-01 2.663167000000000062e+00 -2.984323999999999977e+00 -1.571736000000000022e+00 1.553670000000000051e-01 1.141955000000000053e+00 2.169500000000000040e-01 3.527293999999999929e+00 -9.612770000000000481e-01 -1.645391999999999966e+00 -1.439391000000000087e+00 6.783029999999999893e-01 -4.476169999999999871e-01 -1.482029999999999959e+00 -3.313893000000000200e+00 5.660650000000000404e-01 2.364774999999999849e+00 2.142380000000000173e+00 1.037757999999999958e+00 1.486946000000000101e+00 -4.783069999999999822e-01 -1.203645999999999994e+00 -4.167660000000000253e-01 -7.658030000000000115e-01 1.946499999999999897e-01 -2.990120000000000000e-01 -1.933960000000000123e-01 5.720499999999999474e-01 2.212419999999999831e+00 -1.185740000000000016e+00 -2.417397999999999936e+00 -2.217856999999999967e+00 -4.655290000000000261e-01 1.092313000000000089e+00 -2.226920000000000011e-01 -1.209900000000000003e-01 1.182128999999999985e+00 -1.159321000000000046e+00 3.413987000000000105e+00 -2.873167000000000026e+00 -1.597693999999999948e+00 -1.261455999999999911e+00 -7.490010000000000279e-01 2.200845000000000162e+00 2.791290000000000049e+00 1.079434000000000005e+00 -6.584929999999999950e-01 -3.055991000000000124e+00 -2.846242000000000161e+00 -6.087280000000000468e-01 -4.561689999999999912e-01 6.850150000000000405e-01 2.742506000000000110e+00 2.613090000000000135e+00 -2.628927000000000014e+00 -1.309598999999999958e+00 9.764690000000000314e-01 -2.929174000000000166e+00 2.368837000000000081e+00 -3.061383999999999883e+00 -3.327665999999999791e+00 1.092899000000000065e+00 -1.723198999999999925e+00 1.246437000000000017e+00 -3.236689999999999845e+00 1.774478000000000000e+00 1.183368999999999893e+00 -2.336427000000000032e+00 2.629147999999999818e+00 1.168301999999999952e+00 -1.346230000000000038e+00 -9.106400000000000050e-01 -1.318548000000000053e+00 -8.406860000000000444e-01 3.860520000000000063e-01 -8.958829999999999849e-01 -1.540310000000000012e-01 6.850119999999999543e-01 2.008499999999999869e-02 2.473596999999999824e+00 -8.920050000000000479e-01 -1.673080000000000123e-01 8.408820000000000183e-01 -2.265794000000000086e+00 -3.361499999999999905e-02 -4.029220000000000024e-01 3.556969999999999854e-01 2.606546999999999947e+00 7.720580000000000220e-01 -1.277296999999999905e+00 -4.579019999999999757e-01 -3.069827000000000083e+00 5.612409999999999899e-01 2.069395999999999791e+00 -5.891939999999999955e-01 -6.535520000000000218e-01 -2.733209999999999806e-01 -4.223660000000000192e-01 1.490316999999999892e+00 -6.791610000000000147e-01 -2.137151999999999941e+00 -9.346619999999999928e-01 -2.042098000000000191e+00 1.986729999999999885e-01 3.593370000000000175e-01 7.938579999999999526e-01 7.590259999999999785e-01 2.216471999999999998e+00 2.102769999999999917e-01 -3.063931000000000182e+00 2.895475999999999939e+00 2.530431999999999793e+00 1.920484999999999998e+00 -1.572179999999999911e+00 -1.411720000000000086e+00 1.482699999999999990e-02 6.051109999999999545e-01 2.079737999999999865e+00 9.507339999999999680e-01 2.700638999999999790e+00 -9.155640000000000445e-01 -8.085809999999999942e-01 -3.568169999999999953e-01 1.599045999999999967e+00 1.566983000000000015e+00 1.532969999999999944e+00 3.122872999999999788e+00 1.622773000000000021e+00 -9.193289999999999518e-01 -9.039430000000000520e-01 1.867709999999999926e-01 7.263039999999999496e-01 -5.112069999999999670e-01 6.997929999999999984e-01 1.299582000000000015e+00 4.985999999999999981e-03 1.306578999999999935e+00 -6.936609999999999721e-01 -1.920692999999999984e+00 -1.141196000000000099e+00 6.414720000000000422e-01 1.573906000000000027e+00 -1.931226000000000109e+00 8.900010000000000421e-01 -1.425270999999999955e+00 -1.127218999999999971e+00 7.626039999999999486e-01 4.506229999999999958e-01 -4.109664999999999679e+00 2.776440000000000019e+00 -1.324387999999999899e+00 1.426711000000000062e+00 2.801810000000000134e-01 -3.205423999999999829e+00 -6.912479999999999736e-01 9.401749999999999829e-01 5.025600000000000067e-01 2.023979999999999946e-01 -4.452840000000000131e-01 -1.793799999999999908e-02 1.622651999999999983e+00 -4.847159999999999802e-01 1.230720000000000036e+00 -8.343390000000000528e-01 -1.072678999999999938e+00 7.178330000000000544e-01 9.915699999999999514e-02 -9.528330000000000410e-01 6.200100000000000056e-02 4.587722000000000300e+00 2.621633999999999798e+00 1.616306000000000020e+00 2.441700000000000120e-02 -1.473251000000000088e+00 -1.654529999999999890e-01 2.192203000000000124e+00 2.221879999999999966e-01 2.234377999999999975e+00 2.731709999999999972e-01 1.675349999999999895e-01 -4.063530000000000197e-01 -8.794499999999999540e-02 -5.885660000000000336e-01 -6.487600000000000311e-02 2.262719000000000147e+00 -1.571002999999999927e+00 -1.477484000000000020e+00 -4.572390000000000065e-01 -1.500882000000000049e+00 9.118629999999999791e-01 1.291512999999999911e+00 1.704984999999999973e+00 7.444290000000000074e-01 -8.132819999999999494e-01 4.999279999999999835e-01 -1.808460000000000067e-01 -1.608880000000000032e-01 2.775380000000000069e-01 6.446650000000000436e-01 -2.108980000000000021e-01 -1.538224000000000036e+00 -3.901419999999999888e-01 -3.068400000000000016e-01 3.027499999999999983e-02 -7.707600000000000562e-02 -1.443379999999999941e-01 8.663800000000000390e-01 1.580280000000000018e-01 9.713770000000000460e-01 3.883199999999999985e-01 -6.286580000000000501e-01 1.464817999999999953e+00 -2.902309999999999945e+00 1.071261999999999937e+00 6.458960000000000257e-01 -2.291380000000000083e-01 -1.092500000000000068e-02 -3.938403999999999794e+00 -4.709100000000000091e-02 1.395364000000000049e+00 -2.564350000000000240e-01 -2.291106000000000087e+00 1.147483999999999948e+00 -1.685480000000000089e+00 6.007320000000000437e-01 5.759220000000000450e-01 -2.267473999999999990e+00 -1.879596000000000044e+00 -1.538160000000000083e-01 9.915460000000000385e-01 -4.081350000000000255e-01 2.222800000000000123e-02 -3.193499999999999811e-02 5.494989999999999597e-01 -1.660735000000000072e+00 7.529000000000000102e-03 -6.198230000000000128e-01 2.275643000000000082e+00 -8.328459999999999752e-01 -3.347550000000000248e-01 1.153779000000000110e+00 -2.817100000000000160e-02 -5.553280000000000438e-01 5.171299999999999786e-01 -1.995550000000000102e-01 4.008099999999999857e-02 -3.653900000000000203e-02 -1.568438999999999917e+00 2.290204999999999824e+00 1.035096000000000016e+00 -4.477479999999999793e-01 8.093200000000000394e-02 -1.094099999999999934e-01 1.188782999999999923e+00 1.370309999999999861e-01 -1.778189000000000020e+00 1.094249999999999945e+00 8.918730000000000269e-01 -7.198699999999999544e-02 7.609390000000000320e-01 -9.032869999999999511e-01 -5.451669999999999572e-01 1.678887999999999936e+00 3.165823000000000054e+00 3.103250000000000175e-01 1.316915999999999976e+00 1.978628000000000053e+00 1.760262999999999911e+00 -9.277710000000000123e-01 5.885200000000000153e-02 -4.654820000000000069e-01 -3.723555999999999866e+00 -4.933615999999999779e+00 1.414500000000000091e+00
-2.104335999999999984e+00 2.183900000000000077e-02 -3.412941000000000003e+00 -1.700710000000000000e-01 -2.257016999999999829e+00 1.708382999999999985e+00 1.505889999999999951e+00 3.524479999999999835e-01 1.293914999999999926e+00 3.340285999999999866e+00 5.006519999999999859e-01 1.704237999999999920e+00 -5.751910000000000078e-01 -2.156041000000000096e+00 -9.152869999999999617e-01 2.699365999999999932e+00 -1.804199000000000108e+00 2.316319000000000017e+00 -2.315119999999999845e+00 2.121071000000000151e+00 1.486498000000000097e+00 1.994815999999999923e+00 2.779663000000000217e+00 -1.512713999999999892e+00 4.330300000000000121e-02 -1.324318000000000106e+00 -2.962626000000000204e+00 2.040687000000000140e+00 2.281816000000000066e+00 7.928739999999999677e-01 -1.270048000000000066e+00 1.113615000000000022e+00 -2.365546999999999844e+00 -2.267215999999999898e+00 -1.822050000000000058e-01 2.002702000000000204e+00 1.468088999999999977e+00 2.295786999999999800e+00 -2.001306000000000029e+00 9.140270000000000339e-01 8.223960000000000159e-01 4.272747999999999990e+00 1.053296000000000010e+00 8.697019999999999751e-01 2.563617999999999952e+00 -1.346246999999999971e+00 -2.173897999999999886e+00 7.076240000000000308e-01 -2.039464999999999861e+00 -1.515454999999999997e+00 7.716570000000000373e-01 -5.412109999999999976e-01 -1.868368000000000029e+00 3.398780000000000134e-01 4.931399999999999673e-02 3.173369000000000106e+00 2.101115000000000066e+00 -3.137179999999999969e-01 -1.722800000000000026e-02 3.533680000000000154e-01 2.768180000000000085e-01 3.731840000000000157e-01 9.597580000000000000e-01 1.102594000000000074e+00 -1.919799000000000033e+00 -2.381230000000000013e-01 3.161809999999999898e-01 -9.621269999999999545e-01 -1.256464999999999943e+00 -9.414569999999999883e-01 2.218284000000000145e+00 5.789269999999999694e-01 1.063800000000000079e+00 8.865359999999999907e-01 9.818149999999999933e-01 -1.337799999999999927e-02 2.399096999999999813e+00 1.570963000000000109e+00 -1.603933000000000053e+00 -1.085218000000000016e+00 -9.358039999999999692e-01 -6.703160000000000229e-01 -8.422330000000000094e-01 5.895909999999999762e-01 -2.652978000000000058e+00 -1.245943999999999940e+00 -5.100569999999999826e-01 -2.423667000000000016e+00 -7.467989999999999906e-01 2.680461999999999900e+00 -3.039689999999999892e-01 -9.632619999999999516e-01 -9.934009999999999785e-01 -3.674710000000000143e+00 -1.216506000000000087e+00 -1.359707999999999917e+00 7.388759999999999772e-01 2.386300000000000088e-01 8.134360000000000479e-01 3.590809999999999835e-01 8.198600000000000332e-02 -3.959420000000000162e-01 1.417321999999999971e+00 -1.177262999999999948e+00 1.749857999999999913e+00 -1.350092000000000070e+00 2.184830000000000105e-01 -1.671165999999999929e+00 2.438102999999999909e+00 4.248649999999999927e-01 -3.001231999999999900e+00 -6.173100000000000254e-01 -2.524100000000000232e-01 -1.064610999999999974e+00 -1.175162000000000040e+00 6.657920000000000504e-01 1.631189000000000000e+00 -6.299540000000000139e-01 -2.056699000000000055e+00 -4.803919999999999857e-01 -1.938072000000000017e+00 1.787789999999999935e-01 1.552759999999999918e+00 -5.274399999999999922e-02 1.427809999999999913e-01 -1.268970000000000098e-01 3.721715999999999802e+00 3.134879999999999889e-01 -2.279370000000000007e-01 7.405460000000000376e-01 1.554937999999999931e+00 -7.516369999999999996e-01 -3.826280000000000237e-01 3.387510000000000243e-01 4.238109999999999933e-01 -2.414340000000000097e-01 -8.397699999999999609e-02 -9.115550000000000042e-01 -7.719439999999999635e-01 9.111230000000000162e-01 -7.215500000000000247e-01 -2.741426000000000140e+00 -1.440015000000000045e+00 -1.023544000000000009e+00 -1.353914000000000062e+00 2.179726000000000052e+00 -1.940800000000000025e-01 -7.730740000000000389e-01 9.354259999999999797e-01 -6.306699999999999529e-01 2.147930000000000117e+00 -1.286645999999999956e+00 2.638429999999999942e-01 3.437979999999999925e-01 -2.725470000000000059e+00 1.428188999999999931e+00 1.797363999999999962e+00 -1.563009000000000093e+00 5.231609999999999872e-01 1.589299000000000017e+00 1.384249999999999925e-01 -5.353050000000000308e-01 7.885860000000000092e-01 -2.972699999999999787e-01 1.076044999999999918e+00 7.004909999999999748e-01 -2.866009999999999946e-01 -8.076790000000000358e-01 1.092560000000000059e-01 -1.121110000000000023e-01 -4.941849999999999854e-01 -2.217195999999999945e+00 9.205179999999999474e-01 -2.188146999999999842e+00 1.445036999999999905e+00 -8.935459999999999514e-01 -4.289099999999999857e-02 1.999163999999999941e+00 -6.163579999999999615e-01 -4.608840000000000159e-01 -6.962120000000000530e-01 2.745929999999999760e-01 1.294411999999999896e+00 9.661159999999999748e-01 1.565393999999999952e+00 1.603229999999999933e+00 -1.813277999999999945e+00 -3.961680000000000201e-01 -1.448560999999999988e+00 -1.541400000000000103e+00 6.012300000000000422e-01 -2.587241999999999820e+00 5.853770000000000362e-01 5.453919999999999879e-01 1.693851999999999913e+00 -1.034982000000000069e+00 -2.095120000000000038e-01 -2.594279999999999919e-01 -1.117059000000000024e+00 -1.631874999999999964e+00 7.876520000000000188e-01 -1.797509999999999941e+00 -2.109869000000000216e+00 -8.393810000000000437e-01 -4.883509999999999796e-01 -5.409380000000000299e-01 4.035309999999999730e-01 2.129592999999999847e+00 2.001065999999999789e+00 -3.217357999999999940e+00 -1.282729000000000008e+00 -7.113500000000000378e-02 -5.125750000000000028e-01 2.530132000000000048e+00 2.647200000000000109e-01 -1.840600999999999932e+00 -2.598829999999999751e-01 -1.677490000000000092e-01 -7.536850000000000493e-01 2.213241000000000014e+00 1.212256000000000000e+00 -3.120680000000000121e-01 2.302900000000000086e-02 1.790291999999999994e+00 6.055199999999999472e-01 -3.385518999999999945e+00 -1.996683999999999903e+00 5.835800000000000015e-02 2.279576000000000047e+00 6.205559999999999965e-01 7.835710000000000175e-01 1.445862999999999898e+00 1.189473999999999920e+00 -1.007000000000000083e-02 -1.638786999999999994e+00 -1.736248999999999931e+00 -1.615123000000000086e+00 -2.909010000000000207e-01 -1.086170000000000052e-01 -2.146862000000000048e+00 5.990090000000000137e-01 9.412779999999999481e-01 1.386756000000000100e+00 2.391590000000000105e-01 3.451330000000000231e-01 6.594539999999999846e-01 2.069488999999999912e+00 -5.130909999999999638e-01 9.632209999999999939e-01 -6.216800000000000104e-02 1.587722000000000078e+00 -8.420290000000000274e-01 -4.837770000000000126e-01 9.568079999999999918e-01 1.195102000000000109e+00 -1.138379999999999947e+00 2.026107000000000102e+00 -1.083917000000000019e+00 -4.223350000000000160e-01 -1.450428999999999968e+00 1.562559999999999949e+00 1.101088999999999984e+00 -1.851456999999999908e+00 1.397947000000000051e+00 1.139026000000000094e+00 1.108838999999999908e+00 1.099888999999999895e+00 4.330379999999999785e-01 1.911180000000000101e-01 -1.213983000000000034e+00 6.909899999999999376e-02 -1.616519000000000039e+00 -1.556850000000000067e+00 8.973790000000000378e-01 7.971369999999999845e-01 -2.997890000000000277e-01
-2.126084999999999781e+00 1.311358000000000024e+00 -3.496699999999999808e-02 2.323188000000000031e+00 5.278641000000000361e+00 2.474343999999999877e+00 2.905008000000000035e+00 4.931714999999999627e+00 2.412443000000000115e+00 -3.449409999999999976e-01 3.531766999999999879e+00 3.307990999999999904e+00 -1.514847999999999972e+00 1.690010000000000123e-01 2.372495999999999938e+00 1.378244000000000025e+00 -1.873940000000000050e-01 1.451818000000000053e+00 1.950255999999999990e+00 -2.613112000000000101e+00 -1.850200000000000108e-02 -1.125156999999999963e+00 3.120189999999999908e-01 1.600100000000000133e-02 -4.740260000000000029e-01 -8.437310000000000088e-01 1.412636999999999921e+00 2.717189999999999994e+00 -2.132449999999999957e+00 -8.500799999999999468e-01 1.225605000000000055e+00 -9.383960000000000079e-01 2.201722999999999875e+00 7.333619999999999584e-01 -7.910500000000000309e-01 -3.026380000000000181e-01 1.487379999999999924e+00 1.194552999999999976e+00 -1.468247000000000080e+00 -4.071445999999999898e+00 -2.683988999999999958e+00 3.630164999999999864e+00 -2.751552999999999916e+00 -6.782150000000000123e-01 7.033300000000000107e-01 -7.903750000000000497e-01 2.265206000000000053e+00 2.244317000000000117e+00 8.163559999999999706e-01 2.392796999999999841e+00 -3.421441000000000177e+00 -1.425656999999999952e+00 1.041466000000000003e+00 -1.329822999999999977e+00 1.153316999999999926e+00 1.973854999999999915e+00 -1.616508999999999974e+00 1.117510000000000003e+00 1.591121000000000008e+00 -2.274948000000000192e+00 -1.895983999999999892e+00 -1.043668999999999958e+00 -7.354359999999999786e-01 -1.021787000000000001e+00 1.854209999999999914e+00 2.276449999999999863e-01 1.072669000000000095e+00 -2.994459999999999900e-01 -1.746429999999999927e+00 -3.945679999999999743e-01 5.792899999999999716e-01 -1.857170999999999905e+00 -1.355520000000000058e-01 -8.813649999999999540e-01 -1.817061000000000037e+00 -1.419408999999999921e+00 -3.791726999999999848e+00 6.292659999999999920e-01 3.675888000000000044e+00 6.300391000000000297e+00 -2.499143000000000114e+00 -5.464980000000000393e-01 -2.729230999999999963e+00 -2.531534000000000173e+00 7.055839999999999890e-01 9.767709999999999448e-01 -1.159885999999999973e+00 -4.433420000000000138e-01 -7.167559999999999487e-01 -1.781414000000000053e+00 5.011729999999999796e-01 -2.715700000000000058e-02 -5.068570000000000020e-01 -2.652300000000000144e-02 2.101348999999999911e+00 6.662449999999999761e-01 4.932300000000000018e-01 1.500558999999999976e+00 -3.508419999999999872e-01 4.933989999999999765e-01 -9.046189999999999509e-01 -1.493829000000000073e+00 7.123279999999999612e-01 1.202550999999999926e+00 -5.465630000000000210e-01 2.200867000000000129e+00 4.202910000000000257e-01 -4.141750000000000154e-01 -3.689290000000000069e-01 -1.035810000000000064e-01 3.650869999999999949e-01 4.066870000000000207e-01 -2.582533000000000190e+00 8.009589999999999765e-01 -1.222260000000000013e-01 1.503540000000000099e+00 4.939359999999999862e-01 -7.382199999999999873e-02 2.464780000000000026e-01 -2.371812999999999949e+00 5.160700000000000287e-01 -1.229190000000000005e+00 2.954380000000000006e+00 3.956560000000000077e-01 1.650101000000000040e+00 -1.845950999999999897e+00 -1.425411999999999901e+00 1.978426999999999936e+00 1.748719999999999997e-01 -8.729369999999999630e-01 -1.826340000000000074e+00 -7.600059999999999594e-01 2.091901000000000010e+00 -1.164501999999999926e+00 2.071298000000000084e+00 1.959140000000000048e-01 -7.452229999999999688e-01 -3.338617000000000168e+00 -1.993344000000000005e+00 -1.456212000000000062e+00 -2.179024000000000072e+00 -1.514774000000000065e+00 -1.148252000000000050e+00 -3.226678000000000157e+00 -1.950253000000000014e+00 -1.650546000000000069e+00 2.188629000000000158e+00 8.018399999999999972e-01 -9.980240000000000222e-01 5.171059999999999546e-01 -9.043719999999999537e-01 -1.284788000000000041e+00 1.146292000000000089e+00 -3.679279999999999773e-01 1.775778000000000079e+00 1.116114999999999968e+00 -5.993960000000000399e-01 -1.797769999999999924e-01 2.318837999999999955e+00 1.230320999999999998e+00 8.306360000000000410e-01 -2.307968999999999937e+00 -1.641579999999999984e-01 8.581999999999999351e-02 -1.328141999999999934e+00 1.036823000000000050e+00 7.438679999999999737e-01 1.951967999999999925e+00 -1.025978999999999974e+00 -1.516196000000000099e+00 1.896859999999999935e-01 1.206933000000000034e+00 -1.991630000000000067e-01 -1.029601999999999906e+00 3.890700000000000269e-01 -1.385019999999999862e-01 -6.972220000000000084e-01 -5.339580000000000437e-01 -8.841149999999999842e-01 1.790002000000000093e+00 3.303690000000000238e-01 4.231770000000000254e-01 -8.793860000000000010e-01 -3.815341999999999789e+00 -4.378102000000000160e+00 2.700298000000000087e+00 -2.978479000000000099e+00 -4.813140000000000196e-01 2.129699999999999926e-01 1.525363999999999942e+00 -7.629070000000000018e-01 -1.042561000000000071e+00 2.102425000000000210e+00 -9.998070000000000013e-01 7.111189999999999456e-01 -1.825733999999999968e+00 9.889649999999999830e-01 -1.037681000000000076e+00 2.333003999999999856e+00 -6.978499999999999703e-01 9.505139999999999700e-01 -4.570879999999999943e-01 1.397889999999999966e-01 3.264546999999999866e+00 -3.587429999999999786e-01 6.877180000000000515e-01 -2.706930000000000169e-01 -1.178123000000000031e+00 -9.792290000000000161e-01 2.383560000000000123e-01 1.546931999999999974e+00 6.099500000000000061e-02 -6.656379999999999519e-01 3.443220000000000169e-01 -8.420149999999999579e-01 9.898670000000000524e-01 1.295820000000000027e-01 2.909530000000000172e-01 -5.987249999999999517e-01 -1.789179000000000075e+00 -2.018016999999999950e+00 3.660514000000000046e+00 2.380567999999999795e+00 -5.311200000000000365e-01 1.986984000000000083e+00 -5.893310000000000493e-01 1.105126000000000053e+00 -1.517867999999999995e+00 2.139285000000000103e+00 2.734513999999999889e+00 -2.868933000000000177e+00 -1.623048999999999964e+00 -2.055098999999999787e+00 -1.055492000000000097e+00 -1.099903000000000075e+00 -3.213389999999999858e-01 3.937300000000000244e-01 -3.298619999999999886e-01 -3.375540000000000207e-01 4.376099999999999990e-01 -4.371280000000000165e-01 -5.768020000000000369e-01 -1.807463999999999960e+00 1.505517999999999912e+00 2.324100000000000124e-02 1.171812999999999994e+00 -9.919409999999999616e-01 -8.965880000000000516e-01 -1.433905999999999903e+00 -2.639308000000000209e+00 4.830880000000000174e-01 -4.195110000000000228e-01 1.709756999999999971e+00 3.610709999999999753e-01 5.548399999999999999e-01 3.734830000000000094e-01 -2.611740000000000173e-01 3.527199999999999780e-02 -7.876339999999999453e-01 -7.647230000000000416e-01 1.390000000000000124e-01 4.128249999999999975e-01 6.199999999999999956e-02 1.291684999999999972e+00 1.502591999999999928e+00 9.688800000000000190e-02 -8.420419999999999572e-01 -6.690230000000000343e-01 -1.005339999999999900e+00 2.175540999999999947e+00 -5.198850000000000415e-01 -1.280664000000000025e+00 1.260550000000000004e-01 2.452000000000000013e-01 3.578049999999999842e-01 -5.878879999999999661e-01