2.510647000000000073e+00 -4.896030000000000104e-01 4.864620000000000388e+00 1.453238000000000030e+00 3.949181999999999970e+00 6.434649999999999537e-01 -2.157814999999999817e+00 2.322261000000000131e+00 -2.971309000000000200e+00 1.012094000000000049e+00 -1.808742999999999990e+00 -2.857880999999999894e+00 -1.832373999999999947e+00 -2.653826000000000018e+00 -1.511586000000000096e+00 -2.223028999999999922e+00 -5.320000000000000076e-03 -8.488989999999999592e-01 -2.770202999999999971e+00 -6.151980000000000226e-01 -1.448388000000000009e+00 -6.954489999999999839e-01 2.196879999999999944e-01 4.148800000000000265e-01 2.428577999999999903e+00 4.489100000000000035e-02 -3.789763000000000215e+00 1.172542999999999891e+00 -3.063799999999999857e-02 -5.341489999999999849e-01 1.761360000000000037e+00 9.073539999999999939e-01 5.054130000000000011e-01 -1.840406999999999904e+00 -3.447169999999999956e-01 2.303860999999999937e+00 3.040011999999999937e+00 1.225884999999999891e+00 -1.478760000000000074e+00 2.723669999999999813e+00 4.903600000000000181e-01 2.356634999999999813e+00 -2.756440000000000001e-01 -4.136499999999999899e-02 -2.277163999999999966e+00 3.037374999999999936e+00 -1.820699999999999985e+00 2.095829000000000164e+00 -4.988509999999999889e-01 4.392690000000000206e-01 6.379719999999999835e-01 1.822000000000000052e-03 3.782030000000000114e-01 2.315503999999999785e+00 -9.362310000000000354e-01 -5.808499999999999774e-01 -1.370592000000000033e+00 1.038110000000000005e-01 1.327196000000000042e+00 6.330120000000000191e-01 2.788550000000000195e-01 -3.335732000000000141e+00 9.473890000000000366e-01 -1.031327000000000105e+00 -3.157601999999999798e+00 -1.393491000000000035e+00 -1.502860000000000029e-01 -8.270500000000000074e-02 2.157146000000000008e+00 2.104908000000000001e+00 9.125569999999999515e-01 -3.486580000000000235e-01 -5.897470000000000212e-01 1.158140000000000003e-01 3.046622000000000163e+00 1.418973000000000040e+00 9.909500000000000253e-02 -5.662490000000000023e-01 -8.874170000000000114e-01 -1.977273000000000058e+00 -2.444713000000000136e+00 1.000717000000000079e+00 -1.733761000000000108e+00 -1.705345000000000111e+00 -1.712658000000000014e+00 3.752369999999999872e-01 8.191619999999999457e-01 2.353270000000000084e-01 4.862500000000000155e-01 1.159705999999999904e+00 4.234089999999999798e-01 -4.498630000000000129e-01 2.261350999999999889e+00 -1.161037000000000097e+00 -7.242239999999999789e-01 1.330000000000000073e-04 8.482680000000000220e-01 -4.454589999999999939e-01 5.415910000000000446e-01 9.625580000000000247e-01 -9.362310000000000354e-01 -2.939048999999999801e+00 -5.769560000000000244e-01 -2.184927000000000064e+00 3.017040000000000277e-01 -3.078501000000000154e+00 -2.258153000000000077e+00 4.627109999999999834e-01 1.185492999999999908e+00 1.012663000000000091e+00 9.901039999999999841e-01 -1.985853000000000090e+00 6.508760000000000101e-01 2.081801000000000013e+00 -1.358068999999999971e+00 1.557766999999999902e+00 -5.466599999999999931e-02 -1.079490999999999978e+00 2.399147999999999836e+00 1.169453999999999994e+00 1.749870000000000037e-01 -3.648460000000000036e-01 -1.896363000000000021e+00 -1.678674999999999917e+00 -1.595310000000000061e-01 -2.240320000000000089e-01 -1.259299999999999864e-01 -5.902589999999999781e-01 8.870449999999999724e-01 6.533300000000000218e-02 -1.283716000000000079e+00 -3.960049999999999959e-01 1.009705000000000075e+00 2.894320000000000226e-01 7.256000000000000297e-03 4.133111999999999675e+00 -2.666361999999999899e+00 2.309960000000000069e-01 -1.952455000000000052e+00 -3.448189999999999866e-01 -1.109750000000000014e+00 -3.891407000000000060e+00 3.354099000000000164e+00 -2.278629000000000016e+00 -2.540286000000000044e+00 -1.706609000000000043e+00 1.167766000000000082e+00 -5.462390000000000301e-01 -5.756210000000000493e-01 5.618020000000000236e-01 -9.884680000000000133e-01 2.017421000000000131e+00 6.841089999999999671e-01 5.266300000000000425e-01 -5.106239999999999668e-01 -5.961699999999999777e-01 4.683320000000000261e-01 1.699237000000000108e+00 -9.473409999999999886e-01 -1.224323000000000050e+00 4.069969999999999977e-01 2.462194999999999911e+00 4.436280000000000223e-01 -5.600239999999999663e-01 -1.709654000000000007e+00 -2.700406999999999780e+00 2.126596000000000153e+00 -1.997306999999999944e+00 -7.224140000000000006e-01 1.929427000000000003e+00 2.026619000000000170e+00 -2.404726000000000141e+00 7.355110000000000259e-01 -1.155041999999999902e+00 1.986954000000000109e+00 5.583780000000000410e-01 3.490540000000000198e+00 1.132950000000000068e-01 7.126069999999999904e-01 -7.406799999999999495e-02 -4.786590000000000011e-01 -1.373860000000000081e-01 -2.505790000000000184e+00 2.322458000000000133e+00 4.555819999999999870e-01 -1.809387999999999996e+00 1.937146999999999952e+00 -1.422799999999999933e-02 4.138100000000000112e-02 1.519409999999999927e+00 2.483210000000000139e+00 -5.612610000000000099e-01 -8.629139999999999588e-01 -1.130878999999999968e+00 -2.959881000000000206e+00 2.259294999999999831e+00 -3.018600000000000172e+00 9.238640000000000185e-01 5.887189999999999923e-01 1.830284000000000022e+00 6.201510000000000078e-01 -1.507020000000000026e-01 1.805795999999999957e+00 -1.382875000000000076e+00 2.889213999999999949e+00 2.820708999999999911e+00 5.438589999999999813e-01 2.217760000000000176e+00 8.578670000000000462e-01 -2.304920000000000024e-01 1.874149999999999983e+00 1.310769999999999991e-01 1.958169000000000048e+00 -9.605240000000000444e-01 -2.767444999999999933e+00 4.648289999999999922e-01 3.803230000000000222e-01 1.615793000000000035e+00 1.910838999999999954e+00 1.580492999999999926e+00 2.258408000000000193e+00 1.760610000000000008e+00 -1.554904000000000064e+00 -2.486899000000000193e+00 4.028160000000000074e-01 -6.583799999999999653e-01 1.060440000000000049e+00 1.959713000000000038e+00 -4.722259999999999791e-01 8.050049999999999706e-01 7.847680000000000211e-01 1.297709999999999919e+00 3.197700999999999905e+00 1.439727999999999897e+00 4.953710000000000058e-01 -1.259560999999999931e+00 1.867823000000000011e+00 -2.311479999999999924e-01 7.020889999999999631e-01 -4.720423000000000258e+00 2.807081000000000159e+00 2.294709999999999805e+00 3.984900000000000109e-01 -2.462580000000000047e-01 2.754809999999999759e-01 6.031199999999999894e-01 -1.704310999999999909e+00 1.701014999999999944e+00 -1.346789999999999932e-01 -5.703350000000000364e-01 -7.235800000000000565e-02 -5.929229999999999778e-01 2.760400999999999883e+00 2.440489999999999882e-01 -2.402829000000000104e+00 2.442950000000000121e-01 -3.105011000000000188e+00 8.820670000000000455e-01 -4.111889999999999823e+00 -3.606205999999999801e+00 -3.098094000000000126e+00 -1.247691000000000106e+00 1.649710000000000065e-01 1.639922000000000102e+00 -6.097709999999999519e-01 -2.181446999999999914e+00 1.691041000000000016e+00 2.103430000000000022e-01 1.811359999999999915e-01 -1.430900999999999978e+00 -4.168430000000000191e-01 -2.860799000000000092e+00 -2.704480000000000217e-01 1.758043999999999940e+00 1.564108999999999972e+00 3.013002999999999876e+00 -2.940951000000000093e+00 -1.484398000000000106e+00 -1.011425999999999936e+00 -1.502145000000000064e+00 -3.837010999999999949e+00 -3.693699999999999761e-02 5.684799999999999853e-01 3.208696999999999910e+00 -3.061214000000000102e+00
1.205419999999999936e+00 -3.387421999999999933e+00 -1.535935000000000050e+00 -1.834082999999999908e+00 -2.218259999999999899e+00 -2.626561000000000146e+00 3.683667999999999942e+00 -3.620909999999999962e-01 -1.571209000000000078e+00 4.581100000000000172e+00 -4.338650000000000007e-01 5.933711999999999875e+00 -4.702969999999999651e+00 1.427432000000000034e+00 -3.847014999999999851e+00 1.228390000000000037e-01 5.960619999999999807e-01 8.408550000000000191e-01 2.112584000000000017e+00 1.929579999999999906e-01 -1.711732999999999949e+00 -7.292009999999999881e-01 6.090119999999999978e-01 -1.363356000000000012e+00 -1.536800000000000110e-01 -2.257204000000000210e+00 -2.721156999999999826e+00 1.551528000000000018e+00 -2.383903000000000105e+00 2.901119999999999810e-01 2.445841999999999850e+00 3.493272999999999850e+00 -6.220553999999999917e+00 8.948930000000000495e-01 1.454550999999999927e+00 -4.188410000000000188e-01 -9.626249999999999529e-01 9.998510000000000453e-01 1.077825999999999951e+00 2.260260000000000047e-01 -1.645523999999999987e+00 -2.503711000000000020e+00 2.475258999999999876e+00 2.381781000000000148e+00 1.375885000000000025e+00 -2.642873999999999945e+00 -1.425596000000000085e+00 -1.407176999999999900e+00 3.126052000000000053e+00 1.944600000000000148e-02 4.583368000000000109e+00 -5.718250000000000277e-01 -1.657159000000000049e+00 4.992307000000000272e+00 5.645369999999999555e-01 3.376796000000000131e+00 8.686810000000000365e-01 2.221903000000000183e+00 4.794368000000000407e+00 1.853517999999999999e+00 -1.046349999999999891e+00 -4.431720000000000104e-01 -3.103044999999999831e+00 1.753951999999999956e+00 -4.447240000000000082e-01 1.576548000000000060e+00 -4.145626000000000033e+00 -2.516347000000000111e+00 1.553315999999999919e+00 3.001025999999999971e+00 -3.520394000000000023e+00 -3.782655999999999796e+00 2.400398000000000032e+00 1.569749999999999979e+00 -2.653284999999999894e+00 -4.495591000000000115e+00 7.183589999999999698e-01 2.841520000000000157e-01 1.038980000000000015e+00 1.847449999999999926e-01 9.621950000000000225e-01 -1.951349999999999918e+00 1.444965999999999973e+00 -7.813660000000000050e-01 -1.617841000000000085e+00 2.723259000000000096e+00 -2.840975999999999946e+00 1.459945999999999966e+00 -6.679460000000000397e-01 2.973679000000000183e+00 -8.031110000000000193e-01 -1.903291999999999984e+00 1.791689000000000087e+00 -2.393429999999999946e+00 -6.313139999999999752e+00 2.733578000000000063e+00 1.323336999999999986e+00 1.058111999999999941e+00 4.889089999999999825e-01 4.148479000000000028e+00 1.272989999999999955e-01 -1.582554999999999934e+00 1.193237000000000103e+00 3.348609000000000169e+00 1.956604999999999928e+00 1.276261000000000090e+00 4.963179999999999814e-01 1.243244999999999933e+00 -6.721139999999999892e-01 -2.245413000000000103e+00 -1.302210000000000034e-01 -7.992120000000000335e-01 -1.227862999999999927e+00 9.902500000000000191e-02 1.620673999999999948e+00 7.972010000000000485e-01 -1.037476999999999983e+00 -1.921380000000000032e-01 -1.069439999999999946e+00 -7.767969999999999597e-01 -4.576736000000000359e+00 7.404939999999999856e-01 1.338241000000000014e+00 1.211084000000000049e+00 1.899502999999999941e+00 -5.943279999999999674e-01 -6.817224999999999646e+00 -2.751192000000000082e+00 -4.139587999999999823e+00 -1.501193999999999917e+00 -1.877822000000000102e+00 1.010593999999999992e+00 -1.865953999999999890e+00 3.047301000000000037e+00 -4.580420000000000047e-01 -1.992806000000000077e+00 1.919651999999999914e+00 2.566919999999999757e-01 1.895375000000000032e+00 -2.995754999999999946e+00 1.089728999999999948e+00 2.596950000000000092e-01 -1.714182000000000095e+00 -9.042590000000000350e-01 2.702436000000000060e+00 2.307986999999999789e+00 1.440307000000000004e+00 -2.491713999999999984e+00 -1.276118000000000086e+00 2.627883999999999887e+00 -9.431450000000000111e-01 -1.968998000000000026e+00 -2.322576999999999892e+00 4.959281999999999968e+00 1.486096000000000084e+00 -1.731578999999999979e+00 -2.380046000000000106e+00 1.658155999999999963e+00 -2.278726999999999947e+00 5.070149999999999935e-01 -1.943254999999999955e+00 1.680037000000000003e+00 2.337454000000000143e+00 2.375522999999999829e+00 2.132661999999999836e+00 -1.145502999999999938e+00 -1.164703000000000044e+00 -1.131413999999999920e+00 -1.662085999999999952e+00 2.586100000000000065e-01 2.777026000000000217e+00 -1.607386999999999899e+00 8.287459999999999827e-01 1.949369999999999992e-01 -2.133417000000000119e+00 -3.437781000000000198e+00 1.071893999999999902e+00 1.479368999999999934e+00 -2.213747999999999827e+00 2.200359000000000176e+00 4.831139999999999879e-01 7.312560000000000171e-01 1.335992999999999986e+00 9.163719999999999644e-01 -1.637607000000000035e+00 7.639329999999999732e-01 -7.064439999999999609e-01 -1.034518000000000049e+00 8.188330000000000330e-01 1.523019999999999929e-01 2.317762000000000100e+00 -1.684487000000000068e+00 -3.979099999999999998e-02 1.086543000000000037e+00 -1.992019999999999902e+00 9.654709999999999681e-01 1.289846999999999966e+00 -2.906254999999999811e+00 -1.234907999999999895e+00 -1.641536000000000106e+00 9.938090000000000535e-01 7.325960000000000250e-01 1.096497000000000055e+00 -1.390160000000000062e+00 1.182779000000000025e+00 3.159210000000000074e-01 -2.042783000000000015e+00 -1.183662999999999910e+00 3.792539999999999800e-01 -1.646714000000000011e+00 5.596029999999999616e-01 -9.636419999999999986e-01 2.281330000000000080e+00 9.923319999999999919e-01 1.011457999999999968e+00 -7.280450000000000532e-01 4.736199999999999855e-01 2.643110000000000182e-01 -5.072160000000000002e-01 -5.409899999999999709e-01 1.383037000000000072e+00 -1.124511999999999956e+00 2.742227999999999888e+00 -2.110816999999999943e+00 -2.218120000000000092e-01 -1.271799999999999875e-01 6.085720000000000018e-01 1.016145999999999994e+00 -4.368589999999999973e-01 4.763539999999999996e-01 -3.488829999999999987e-01 5.126659999999999551e-01 5.080869999999999553e-01 1.617623999999999951e+00 2.614199999999999857e-01 -1.784586999999999923e+00 1.034100999999999937e+00 -4.501949999999999896e+00 -3.228413000000000199e+00 3.241009000000000029e+00 -3.832486999999999977e+00 1.987286000000000108e+00 -5.202050999999999981e+00 -1.894959999999999978e-01 -1.425103999999999926e+00 1.285206000000000071e+00 -5.605660000000000087e-01 9.912400000000000100e-01 -4.251719999999999944e-01 -1.047128999999999976e+00 -6.545590000000000019e-01 -2.085710000000000064e-01 1.582508000000000026e+00 2.920117999999999991e+00 3.581300000000000039e-01 -4.977960000000000163e-01 -6.250229999999999952e-01 -1.025757000000000030e+00 -7.950479999999999769e-01 -1.491263999999999923e+00 9.796740000000000448e-01 1.691114000000000006e+00 -4.128720000000000168e-01 2.506727000000000150e+00 -2.250042000000000098e+00 2.914657000000000053e+00 -6.696189999999999642e-01 1.221565000000000012e+00 -7.426239999999999508e-01 6.046129999999999560e-01 6.386500000000000510e-01 1.774942000000000020e+00 -3.704026999999999958e+00 8.195040000000000102e-01 6.854599999999999582e-02 1.929232999999999976e+00 1.005787999999999904e+00 3.318869999999999876e-01 1.561271999999999993e+00 -2.870074999999999932e+00 3.806958999999999982e+00 1.856641999999999904e+00 2.932379000000000069e+00 6.181240000000000068e-01 2.520379999999999843e+00
-8.750980000000000425e-01 2.278270000000000017e-01 1.183240000000000069e+00 1.344106000000000023e+00 -4.014854999999999841e+00 -2.017724999999999991e+00 -1.712177000000000060e+00 1.108808000000000016e+00 -1.195520000000000055e-01 -1.350425999999999904e+00 1.791284000000000098e+00 -6.354340000000000543e-01 8.755599999999999494e-02 -5.345680000000000431e-01 -8.480210000000000248e-01 1.005671999999999899e+00 -1.556033999999999917e+00 -5.943929999999999492e-01 -5.615539999999999976e-01 -1.765687999999999924e+00 -8.062859999999999472e-01 -5.149770000000000181e-01 -1.451659000000000033e+00 5.425609999999999600e-01 -5.012119999999999909e-01 -9.882900000000000018e-01 1.471487999999999907e+00 3.902626000000000150e+00 1.648285999999999918e+00 9.461159999999999570e-01 -2.260771000000000086e+00 -6.676360000000000072e-01 -3.310242000000000129e+00 -7.542069999999999608e-01 2.426505999999999830e+00 5.643700000000000105e-02 3.101979000000000042e+00 1.574651000000000023e+00 4.759247000000000227e+00 -3.677556000000000047e+00 -5.612840000000000051e-01 -4.178598000000000035e+00 -7.468420000000000059e-01 1.506379999999999941e-01 9.869869999999999477e-01 2.665325999999999862e+00 5.777973000000000248e+00 1.757034999999999902e+00 6.334760000000000391e-01 -2.139850000000000030e+00 8.208760000000000501e-01 -5.338559999999999972e-01 8.684070000000000400e-01 2.260596000000000050e+00 1.726196000000000064e+00 2.683880000000000154e-01 1.455259999999999998e+00 7.706889999999999574e-01 -3.626460999999999935e+00 -1.370011000000000090e+00 -9.279530000000000278e-01 -9.058709999999999818e-01 -5.679000000000000020e-03 -3.425631999999999788e+00 2.547690000000000232e-01 -9.121869999999999701e-01 -3.235099999999999781e-02 4.478969999999999896e-01 2.892569999999999864e-01 -1.775109000000000048e+00 -1.202560000000000018e-01 -1.452742999999999896e+00 -2.040081999999999951e+00 -9.373709999999999543e-01 1.275999000000000105e+00 3.186300000000000243e-02 -3.482006999999999852e+00 -5.296180000000000332e-01 7.154099999999999904e-01 1.347795000000000076e+00 -4.778470000000000217e-01 -4.415149999999999908e-01 8.818639999999999812e-01 3.025758000000000170e+00 1.993320999999999898e+00 -9.674869999999999859e-01 4.339900000000000008e-02 2.484194000000000013e+00 2.434613999999999834e+00 -7.631850000000000023e-01 -2.661919999999999842e-01 2.076681999999999917e+00 1.109080000000000066e-01 1.104511999999999938e+00 2.642530999999999963e+00 2.461984999999999868e+00 8.394200000000000550e-01 8.572180000000000355e-01 -2.392130000000000090e-01 -2.247139000000000220e+00 6.672550000000000425e-01 -6.124070000000000347e-01 -1.996880000000000044e-01 1.572470000000000034e+00 4.715400000000000147e-01 1.586883000000000044e+00 -4.076730000000000076e-01 -2.878199999999999856e-02 -6.788380000000000525e-01 -4.555819999999999870e-01 -5.809689999999999577e-01 7.875259999999999483e-01 -1.350216000000000083e+00 -1.411324000000000023e+00 1.170609000000000011e+00 8.617759999999999865e-01 1.093409999999999938e-01 -1.968804999999999916e+00 -2.528046999999999933e+00 -1.100184999999999969e+00 -2.565481999999999818e+00 1.901728000000000085e+00 1.121800000000000054e-02 -4.317599999999999771e-01 -1.468293000000000070e+00 1.048931999999999976e+00 1.010987999999999998e+00 -1.272253000000000078e+00 -9.758400000000000407e-02 2.066950999999999983e+00 1.103723000000000010e+00 -3.782730000000000259e-01 2.421669999999999934e-01 1.341279999999999972e-01 9.129650000000000265e-01 -5.088019999999999765e-01 -1.633369000000000071e+00 3.958639999999999937e-01 -1.363920999999999939e+00 5.217819999999999681e-01 3.844743999999999939e+00 9.987989999999999924e-01 -3.360060000000000269e-01 -2.400341000000000058e+00 5.114130000000000065e-01 7.145179999999999865e-01 -2.244539000000000062e+00 4.620279999999999943e-01 -1.393143000000000020e+00 1.223106999999999944e+00 -6.079130000000000367e-01 6.493689999999999740e-01 -2.786770000000000191e+00 -9.445369999999999600e-01 5.602464999999999584e+00 -3.783373999999999793e+00 1.237468999999999930e+00 -2.317340000000000177e+00 2.680918000000000134e+00 3.101110000000000255e-01 -5.590589999999999726e-01 -3.591825000000000045e+00 -2.766500000000000181e+00 3.026820000000000066e-01 1.251724000000000059e+00 -1.085842999999999892e+00 1.667548000000000030e+00 -1.196120000000000072e+00 6.952509999999999524e-01 2.023112999999999939e+00 2.952068999999999832e+00 1.378773000000000026e+00 1.282607000000000053e+00 -2.269563999999999915e+00 6.174389999999999601e-01 8.422629999999999839e-01 7.247240000000000348e-01 -1.522321000000000035e+00 2.776580000000000159e-01 2.165500000000000064e-02 -2.643555999999999795e+00 1.473330999999999946e+00 2.618539999999999757e-01 -1.323071000000000108e+00 4.525859999999999883e-01 1.388719999999999954e+00 -3.670769999999999866e-01 -1.581361000000000017e+00 -1.030192999999999914e+00 -1.251641000000000004e+00 -2.952717999999999954e+00 7.273330000000000073e-01 2.297813000000000105e+00 1.921621000000000024e+00 2.951026000000000149e+00 4.369379999999999931e-01 2.929416999999999938e+00 -3.398619999999999974e-01 9.186790000000000234e-01 9.854999999999999177e-03 5.442550000000000443e-01 1.711478999999999973e+00 -1.247273999999999994e+00 1.030783000000000005e+00 -3.096602999999999994e+00 1.574791000000000052e+00 1.762323000000000084e+00 1.497061999999999893e+00 -1.872257999999999978e+00 5.316070000000000517e-01 6.441980000000000484e-01 -1.113229000000000024e+00 -2.517295999999999978e+00 1.388981999999999939e+00 -1.461667000000000050e+00 -1.750471000000000110e+00 1.708315000000000028e+00 -2.888609000000000204e+00 -1.783973000000000031e+00 -1.021408000000000094e+00 1.442337999999999898e+00 -7.381469999999999976e-01 1.203194000000000097e+00 -3.189739999999999798e-01 -3.007153000000000187e+00 2.831094000000000221e+00 3.665715000000000057e+00 -2.718990000000000018e-01 -2.999845000000000095e+00 -4.508536000000000321e+00 -8.411499999999999533e-01 -2.312222999999999917e+00 -2.346511000000000013e+00 -2.522168000000000188e+00 1.285365000000000091e+00 -9.286379999999999635e-01 -3.042593999999999799e+00 5.749929999999999763e-01 -2.101811000000000096e+00 1.009058999999999928e+00 7.390940000000000287e-01 4.497149999999999759e-01 1.509174000000000015e+00 -1.675647000000000109e+00 -2.161777999999999977e+00 -9.784180000000000099e-01 -8.026259999999999506e-01 1.107593000000000050e+00 2.870070999999999817e+00 5.915110000000000090e-01 -4.293750000000000067e-01 -3.497069999999999901e-01 2.596886000000000028e+00 -1.359394999999999909e+00 3.007259999999999933e-01 -1.184763999999999928e+00 1.393180000000000085e+00 -6.010700000000000071e-02 3.677929999999999811e-01 -6.094700000000000117e-02 4.473639999999999617e+00 -6.907459999999999711e-01 -8.285730000000000040e-01 -1.504890000000000061e+00 -2.083389999999999964e-01 2.212114999999999831e+00 1.522826000000000013e+00 -1.085221999999999909e+00 -9.664930000000000465e-01 3.140109999999999846e-01 4.168669999999999876e-01 -8.373789999999999845e-01 -9.310760000000000147e-01 2.199859000000000009e+00 1.440110000000000001e+00 2.884220000000000117e-01 1.450760000000000050e+00 5.431070000000000064e-01 -1.128527999999999976e+00 1.717292000000000041e+00 1.327999999999999970e-03 1.494617000000000084e+00 -2.109103000000000172e+00 -1.222020000000000051e-01 1.464026999999999967e+00
1.174382000000000037e+00 -6.018780000000000241e-01 -1.127467999999999915e+00 2.034504999999999786e+00 1.219036999999999926e+00 6.857240000000000002e-01 5.992260000000000364e-01 -5.664810000000000123e-01 8.288879999999999582e-01 3.562830000000000163e-01 -4.051690000000000014e-01 -4.913500000000000090e-01 8.572009999999999907e-01 -1.330678000000000027e+00 -1.293806000000000012e+00 4.031649999999999956e-01 1.670568999999999971e+00 -1.103858000000000006e+00 -6.046749999999999625e-01 -1.003938999999999915e+00 1.489875999999999978e+00 -3.229850000000000221e-01 -1.222822999999999993e+00 1.985038999999999998e+00 -9.508219999999999450e-01 -1.586440000000000072e+00 -8.727350000000000385e-01 1.584664000000000073e+00 2.907549999999999857e-01 3.806010000000000226e-01 2.534602000000000022e+00 -7.386629999999999585e-01 7.633529999999999482e-01 9.250169999999999781e-01 -2.849369999999999958e-01 -3.139305999999999930e+00 6.024329999999999963e-01 -1.554496000000000100e+00 -1.723934999999999995e+00 6.886189999999999811e-01 2.157027999999999945e+00 -1.723921999999999954e+00 4.860959999999999726e-01 1.475049999999999972e-01 5.072539999999999827e-01 -1.994656999999999902e+00 -5.106399999999999828e-01 1.253022999999999998e+00 -2.467137000000000135e+00 1.215178000000000091e+00 1.252369999999999983e+00 1.346583000000000085e+00 -2.402324999999999822e+00 -3.285100000000000242e-01 2.370279000000000025e+00 1.617312000000000083e+00 -6.222599999999999659e-02 -1.659270000000000023e+00 2.051055999999999990e+00 1.553874999999999895e+00 -4.929893999999999998e+00 1.981900999999999913e+00 4.186541000000000068e+00 -1.108030000000000070e+00 -1.410100000000000069e-02 2.611597999999999864e+00 -2.497123000000000204e+00 -1.463589999999999947e+00 -3.536818999999999935e+00 9.763300000000000312e-01 -1.814373000000000014e+00 4.265450000000000075e-01 4.612979999999999858e-01 -3.501306000000000029e+00 6.122799999999999770e-02 1.676069999999999949e+00 6.067299999999999777e-02 1.166056999999999899e+00 5.297800000000000287e-01 3.951465999999999923e+00 -1.497868999999999895e+00 7.053390000000000493e-01 2.942930000000000268e-01 -1.526833000000000107e+00 1.882627000000000050e+00 -2.455999999999999850e-03 -6.994080000000000297e-01 -1.981578999999999979e+00 -3.088278999999999996e+00 -3.032055000000000167e+00 -8.753069999999999462e-01 -1.547215999999999925e+00 -2.575994000000000117e+00 -2.556391000000000080e+00 3.356699999999999962e-02 -1.058059999999999973e-01 1.265177999999999914e+00 1.397034000000000109e+00 1.026329000000000047e+00 1.478410000000000002e-01 -1.114017000000000035e+00 -3.088210000000000122e-01 -1.289414999999999978e+00 1.749816000000000038e+00 7.936029999999999474e-01 6.847400000000000153e-01 -1.687850999999999990e+00 2.237013999999999836e+00 -1.756223000000000090e+00 2.392624999999999780e+00 2.757429999999999826e+00 -2.368424999999999780e+00 1.320033999999999930e+00 1.646219999999999906e-01 -1.107830000000000065e-01 2.546389000000000014e+00 6.954129999999999479e-01 2.515734999999999832e+00 -1.007780000000000065e-01 1.246688999999999936e+00 6.252729999999999677e-01 1.859402999999999917e+00 2.661660000000000137e-01 -2.402799999999999936e-01 -9.852640000000000287e-01 1.995460000000000012e-01 9.373179999999999845e-01 2.131171000000000149e+00 1.405054999999999943e+00 2.105220999999999787e+00 -8.413559999999999928e-01 -1.048783000000000021e+00 4.243239999999999790e-01 1.056240000000000068e+00 -1.889494000000000007e+00 -6.841880000000000184e-01 -3.412140000000000173e-01 3.275370000000000226e-01 1.553640000000000021e-01 1.930288999999999922e+00 -7.653799999999999493e-01 -7.522349999999999870e-01 -2.381108999999999920e+00 5.888360000000000261e-01 3.848590000000000066e-01 7.508510000000000462e-01 9.351620000000000488e-01 -1.052429999999999977e+00 3.514929999999999999e-01 -1.094516000000000044e+00 -4.106420000000000070e-01 1.921110000000000040e-01 5.203599999999999892e-02 5.073654000000000330e+00 -3.271527999999999992e+00 -3.283635999999999999e+00 -1.149947999999999970e+00 1.212712999999999930e+00 2.700060999999999822e+00 9.266299999999999537e-01 -2.509043999999999830e+00 6.223999999999999672e-02 3.696780000000000066e-01 -6.280860000000000332e-01 1.102591000000000099e+00 1.054119000000000028e+00 1.714212999999999987e+00 -1.890911999999999926e+00 4.507970000000000033e-01 -2.701327000000000034e+00 -9.892700000000000105e-02 -1.559175999999999895e+00 -4.905789999999999873e-01 -1.284450000000000036e-01 2.330420000000000158e+00 -1.445910999999999946e+00 -1.283519999999999994e+00 1.333429999999999893e-01 1.453610999999999986e+00 -4.963600000000000234e-01 2.540738999999999859e+00 -1.041419999999999985e-01 -1.225286000000000097e+00 -1.431439999999999935e-01 6.532409999999999606e-01 -7.935539999999999816e-01 3.372689999999999855e-01 1.331671000000000049e+00 7.936069999999999514e-01 1.337639999999999940e-01 2.885090000000000154e-01 -8.945830000000000171e-01 2.449830000000000063e-01 -5.692749999999999755e-01 3.045453999999999883e+00 -7.019360000000000044e-01 -8.951230000000000020e-01 2.124995999999999885e+00 2.730560000000000209e-01 -1.476901000000000019e+00 -2.734260000000000024e-01 -1.751122999999999985e+00 7.287100000000000521e-02 -2.493667999999999996e+00 8.003970000000000251e-01 2.490839999999999999e-01 2.814639999999999920e-01 1.048737000000000030e+00 -5.078730000000000189e-01 -2.765864000000000100e+00 8.936420000000000474e-01 -2.501920000000000255e-01 -3.170209999999999972e-01 -1.132071999999999967e+00 -4.748260000000000258e-01 1.280102000000000073e+00 -1.558912999999999993e+00 -8.665169999999999817e-01 1.115768000000000093e+00 1.031010999999999900e+00 -1.569895000000000040e+00 -1.324095000000000022e+00 -9.449769999999999559e-01 -1.032192999999999916e+00 1.725986999999999938e+00 5.759579999999999700e-01 -1.719179999999999930e+00 6.939910000000000245e-01 -2.278885999999999967e+00 -1.058980000000000060e-01 -1.094486999999999988e+00 5.627469999999999972e-01 -9.112999999999999573e-03 8.583100000000000451e-02 -1.589016999999999902e+00 1.279981000000000035e+00 4.752179999999999738e-01 -2.762900999999999829e+00 1.105779999999999957e-01 7.965379999999999683e-01 -1.970148999999999928e+00 8.180009999999999781e-01 1.147470000000000018e-01 -1.687240000000000129e-01 1.188404999999999934e+00 5.276399999999999840e-02 -2.450799999999999854e-02 2.492340000000000111e-01 -2.831790000000000140e-01 1.038311999999999902e+00 6.339249999999999607e-01 1.435240000000000127e-01 -4.873839999999999839e-01 2.063953000000000149e+00 3.469090000000000229e-01 -1.407907999999999937e+00 -1.814243000000000050e+00 1.192430000000000018e-01 -6.769669999999999854e-01 -7.330609999999999626e-01 1.337928999999999924e+00 1.134610000000000063e-01 2.648241000000000067e+00 7.363389999999999658e-01 -2.811885000000000190e+00 -4.313640000000000252e-01 -3.672836999999999907e+00 2.474422000000000121e+00 3.135886999999999869e+00 -5.385299999999999532e-01 1.514755999999999991e+00 1.487942000000000098e+00 -2.822680000000000189e-01 -1.905496000000000079e+00 -1.638700000000000045e+00 1.729509999999999936e-01 -4.445660000000000167e-01 1.281822000000000017e+00 3.987319999999999753e-01 4.290410000000000057e-01 2.063382999999999967e+00 -8.944760000000000488e-01 2.908830000000000027e-01 -1.968712999999999935e+00 2.429570000000000007e+00