-9.099716314900000498e+02
-9.073966133300000365e+02
-9.153382792400000199e+02
-9.184651804799999582e+02
-9.118016458900000316e+02
-9.176174106700000266e+02
-9.142635607299999947e+02
-9.170458412299999509e+02
-9.129126153700000259e+02
-9.160037990900000295e+02
-9.155574557500000310e+02
-9.059592609400000356e+02
-9.166696614400000271e+02
-9.153119986799999879e+02
-9.107116230399999495e+02
-9.125101844399999891e+02
-9.083671911899999714e+02
-9.062691493500000206e+02
-9.090266312799999469e+02
-9.163050265099999478e+02
-9.172112985200000139e+02
-9.106988050700000485e+02
-9.078698570699999664e+02
-9.071748721000000160e+02
-9.197476164800000333e+02
-9.163085658500000363e+02
-9.199315830799999958e+02
-9.132063164600000391e+02
-9.154170748100000310e+02
-9.146253916699999991e+02
-9.116808736000000408e+02
-9.078260401500000398e+02
-9.113107428700000128e+02
-9.103791160299999774e+02
-9.112743160500000386e+02
-9.093235750400000370e+02
-9.102725063999999975e+02
-9.121397502600000280e+02
-9.181744442200000549e+02
-9.109194636099999798e+02
-9.136700205199999800e+02
-9.158182868799999596e+02
-9.099170629699999608e+02
-9.166163486100000455e+02
-9.091671650299999783e+02
-9.110653977099999565e+02
-9.093360761899999716e+02
-9.102076488300000392e+02
-9.157258654700000307e+02
-9.065784602999999606e+02
-9.142964397499999905e+02
-9.110999057400000538e+02
-9.092995062999999618e+02
-9.176979502899999943e+02
-9.096726840200000197e+02
-9.153101512499999899e+02
-9.179314676799999688e+02
-9.136486002200000485e+02
-9.152090638399999989e+02
-9.143662163400000509e+02
-9.188137478999999530e+02
-9.102274294899999632e+02
-9.171988840899999786e+02
-9.169999695699999620e+02
-9.074577770800000280e+02
-9.139337955500000135e+02
-9.087798806600000034e+02
-9.127199967999999899e+02
-9.098212360100000069e+02
-9.106455374700000220e+02
-9.078428203400000029e+02
-9.117102570499999956e+02
-9.169055774600000177e+02
-9.077835929799999803e+02
-9.100960251499999458e+02
-9.171234779400000434e+02
-9.137555092600000535e+02
-9.067285571600000367e+02
-9.203501714100000299e+02
-9.167075289900000143e+02
-9.091242227400000502e+02
-9.084529223299999785e+02
-9.100305572600000232e+02
-9.053984113200000365e+02
-9.164732361600000559e+02
-9.091541478699999743e+02
-9.086371040100000300e+02
-9.187217245599999842e+02
-9.103371912999999722e+02
-9.098727079400000548e+02
-9.203195219100000486e+02
-9.178048087399999986e+02
-9.159573668699999871e+02
-9.117448587899999666e+02
-9.127711539700000003e+02
-9.102265203399999791e+02
-9.117993585200000553e+02
-9.122248214500000358e+02
-9.123792291600000226e+02
-9.174916774399999895e+02
