8.202859999999999596e-01 -1.080681000000000003e+00 -1.107976999999999990e+00 6.573639999999999484e-01 1.522950000000000137e-01 -9.025530000000000497e-01 -1.160889999999999977e-01 1.801830000000000043e+00 2.134939000000000142e+00 -1.520704999999999973e+00 2.690631000000000217e+00 -2.874140999999999835e+00 1.381083999999999978e+00 1.230009999999999992e-01 1.594282999999999895e+00 -1.408306999999999976e+00 9.306229999999999780e-01 -1.072397999999999962e+00 2.132962000000000025e+00 2.064967999999999915e+00 1.215535000000000032e+00 -1.096359000000000083e+00 3.923923999999999968e+00 -4.837919999999999998e-01 8.067469999999999919e-01 -4.773789999999999978e-01 -1.001703999999999928e+00 4.146770000000000178e-01 -5.077949999999999964e-01 -1.769050000000000067e-01 -1.003231999999999902e+00 1.384150999999999909e+00 -1.649059999999999970e-01 2.862569999999999837e-01 -1.458261000000000029e+00 1.495660000000000045e-01 -7.694280000000000008e-01 1.019641000000000020e+00 5.309610000000000163e-01 3.991029999999999855e-01 8.020040000000000502e-01 -1.246534999999999949e+00 1.170819999999999972e+00 -6.796919999999999629e-01 -1.800681999999999894e+00 1.177175000000000082e+00 4.154599999999999960e-01 -7.858359999999999790e-01 1.109113000000000016e+00 -1.896220000000000017e+00 -2.222010000000000096e-01 -4.390220000000000233e-01 -4.698930000000000051e-01 2.488677000000000028e+00 -2.404138000000000108e+00 2.060999999999999943e+00 3.297404999999999919e+00 9.186459999999999626e-01 -3.043300000000000172e-02 -1.165173999999999932e+00 -2.215723999999999805e+00 -1.124129999999999990e-01 5.159199999999999897e-02 -1.952725000000000044e+00 1.680573000000000095e+00 1.481864000000000070e+00 2.985962999999999923e+00 2.958896999999999888e+00 -9.910399999999999765e-02 -1.055347000000000035e+00 8.321699999999999653e-01 -1.058390000000000025e-01 1.137102999999999975e+00 -2.452879999999999949e+00 1.230363000000000095e+00 2.852180000000000271e-01 5.688700000000000007e-02 -8.064249999999999474e-01 3.814900000000000235e-02 -2.337750000000000106e-01 9.546540000000000026e-01 5.669669999999999987e-01 -3.262611999999999846e+00 -1.271906999999999899e+00 -1.566616000000000009e+00 -5.836200000000000276e-01 -4.561000000000000054e-01 -1.078040000000000109e+00 -2.926289999999999836e+00 -2.292708000000000190e+00 -1.872211000000000070e+00 -8.817660000000000498e-01 -7.619399999999999784e-02 6.509897999999999740e+00 -2.667330999999999896e+00 5.056490000000000151e-01 2.837019000000000180e+00 -2.851557000000000119e+00 6.794219999999999704e-01 8.569590000000000263e-01 6.755060000000000509e-01 1.302759999999999918e+00 7.269060000000000521e-01 -2.312587000000000170e+00 -8.180330000000000101e-01 1.270717000000000096e+00 -5.520380000000000287e-01 1.438266000000000044e+00 -1.904750000000000054e-01 -3.274619999999999753e-01 -3.240439999999999987e-01 1.199861000000000066e+00 -1.279374000000000011e+00 6.324269999999999614e-01 4.067629999999999857e-01 -1.701885000000000092e+00 8.269100000000000339e-01 9.506090000000000373e-01 -8.599959999999999827e-01 -3.710919999999999774e-01 -1.795007000000000019e+00 2.010988000000000220e+00 6.651399999999999535e-01 -5.932589999999999808e-01 -2.248640000000000083e-01 -1.545239999999999947e-01 7.972869999999999679e-01 2.017484000000000055e+00 -1.264561999999999964e+00 -1.570230000000000015e+00 -1.616881000000000013e+00 2.550867999999999913e+00 6.166509999999999492e-01 -3.284200000000000313e-02 2.217817999999999845e+00 2.534640000000000226e-01 5.038230000000000208e-01 7.557700000000000529e-01 -1.488769999999999927e+00 -5.205840000000000467e-01 -1.728324999999999889e+00 4.034039999999999848e-01 3.924500000000000210e-02 9.656010000000000426e-01 -1.994019999999999904e+00 3.195981000000000183e+00 8.451309999999999656e-01 -1.846506999999999898e+00 -6.676490000000000480e-01 -1.166004000000000040e+00 5.145399999999999974e-01 1.543841999999999937e+00 2.248597000000000179e+00 -1.185324000000000044e+00 -2.195699999999999874e-01 -1.573121999999999909e+00 -3.543820999999999888e+00 2.648585999999999885e+00 -1.506787000000000099e+00 1.089439000000000046e+00 2.357070000000000221e+00 -1.765109999999999957e+00 -8.160239999999999716e-01 -5.397579999999999600e-01 4.894209999999999949e-01 3.868670000000000164e-01 4.766909999999999759e-01 -4.986010000000000164e-01 6.648889999999999523e-01 3.059079999999999799e+00 4.731000000000000205e-01 -4.773589999999999778e-01 2.694239999999999968e-01 -1.584511000000000003e+00 -2.157321000000000044e+00 -1.650222999999999995e+00 -2.071997999999999784e+00 -4.613459999999999783e-01 6.347699999999999454e-01 -1.760852000000000084e+00 1.935169999999999946e-01 1.043134000000000006e+00 -1.833780000000000132e-01 -1.727027000000000090e+00 1.167599999999999971e+00 5.941459999999999519e-01 -8.151420000000000332e-01 -2.294423000000000101e+00 -8.302680000000000060e-01 2.622872999999999788e+00 -2.227958999999999801e+00 1.453962999999999894e+00 2.191110000000000002e-01 1.903099000000000096e+00 -3.873840000000000061e-01 1.985959000000000030e+00 -7.989460000000000450e-01 6.496129999999999960e-01 -1.591142000000000056e+00 1.578390000000000071e-01 1.535009999999999986e+00 -5.165410000000000279e-01 -5.033779999999999921e-01 -1.008450000000000041e-01 -1.029765000000000041e+00 -1.704091000000000022e+00 1.455889999999999962e-01 1.729219999999999924e-01 -5.021689999999999765e-01 1.203899999999999935e-02 1.920412999999999926e+00 1.317010000000000014e+00 -3.984987999999999975e+00 -1.453063999999999911e+00 -4.775570000000000093e-01 2.939160000000000106e-01 -5.936270000000000158e-01 1.265299999999999932e-02 -1.366988000000000092e+00 2.193730000000000124e-01 -4.135039999999999827e-01 3.087445999999999913e+00 -1.174063999999999997e+00 -1.703600000000000003e+00 6.170769999999999866e-01 -6.438800000000000079e-01 -2.677884000000000153e+00 1.833670000000000022e-01 1.336173000000000055e+00 -5.150909999999999656e-01 -1.564554000000000000e+00 1.774969999999999881e-01 -1.303860000000000019e-01 -2.014317000000000135e+00 -1.162431999999999910e+00 -2.802069999999999839e-01 2.946447000000000038e+00 -9.805519999999999792e-01 8.786999999999999672e-03 1.396838999999999942e+00 -8.998960000000000292e-01 -3.650619999999999976e-01 9.716630000000000544e-01 -2.288934999999999942e+00 -5.809980000000000144e-01 2.915579999999999838e-01 5.194910000000000361e-01 -2.568909999999999805e-01 -2.265665999999999958e+00 -2.767000000000000015e-02 -1.552362000000000020e+00 2.144699999999999940e-01 9.765610000000000124e-01 6.099799999999999667e-01 1.922689999999999955e-01 1.345968000000000053e+00 -1.013163000000000036e+00 -1.334265999999999952e+00 5.004760000000000320e-01 -3.909200000000000175e-02 -2.020190000000000041e-01 2.222156000000000020e+00 3.169151999999999969e+00 3.457530000000000214e+00 1.920633000000000035e+00 -1.611884000000000094e+00 5.023699999999999694e-02 3.513399999999999856e-01 2.748915999999999915e+00 -2.705000000000000182e-01 -2.428621999999999836e+00 1.007620000000000043e-01 -2.799340000000000162e-01 1.492391999999999941e+00 1.574840000000000129e-01 -3.341500000000000026e-01
-7.584750000000000103e-01 -1.600910000000000055e+00 5.036429999999999518e-01 2.118139999999999912e+00 -4.885660000000000003e-01 3.431757000000000168e+00 -1.401596000000000064e+00 -1.342767999999999962e+00 -1.145575999999999928e+00 3.076370999999999967e+00 2.674000000000000266e-01 5.624040000000000150e-01 3.011474999999999902e+00 -2.699046000000000056e+00 -1.479020999999999919e+00 2.304285999999999834e+00 7.066320000000000379e-01 7.878460000000000463e-01 -9.069800000000000084e-01 3.236422999999999828e+00 -1.240010000000000001e-01 -1.189484999999999904e+00 -2.428031999999999968e+00 -5.028839999999999977e-01 -1.544753000000000043e+00 2.825442999999999927e+00 -9.264790000000000525e-01 -2.297439999999999927e+00 4.817152000000000100e+00 2.235939000000000121e+00 1.859701000000000048e+00 -1.099663000000000057e+00 -1.113828999999999958e+00 -4.937819999999999987e-01 -1.755100000000000104e+00 6.048519999999999452e-01 8.949540000000000273e-01 2.431169999999999998e-01 2.236171999999999827e+00 -7.901789999999999647e-01 1.228749000000000091e+00 2.271319000000000088e+00 -7.011039999999999495e-01 2.797934999999999839e+00 -9.737700000000000244e-01 -3.087719999999999909e-01 2.719710000000000183e-01 1.287606000000000028e+00 -2.534850000000000159e-01 -2.399300000000000044e-01 -2.135349000000000164e+00 -1.200220000000000037e-01 -4.854046999999999557e+00 1.227697000000000038e+00 2.371005999999999947e+00 1.737921000000000049e+00 2.557716000000000101e+00 -1.180463999999999958e+00 1.529571999999999932e+00 9.980130000000000390e-01 2.389100000000000112e-01 -2.235993000000000119e+00 1.365059999999999885e-01 -2.378510000000000069e-01 -2.095934999999999881e+00 -2.749289999999999790e+00 4.395500000000000101e-02 -2.013909999999999867e-01 -1.120835999999999943e+00 2.412999999999999867e-01 2.198986999999999803e+00 6.368880000000000097e-01 5.930720000000000436e-01 8.558999999999999941e-02 -2.525595000000000034e+00 2.716549999999999798e+00 7.792300000000000615e-02 2.243799999999999961e-02 -1.016758000000000051e+00 2.953062000000000076e+00 2.123172999999999977e+00 -1.055358999999999936e+00 1.474614000000000091e+00 2.342799999999999994e+00 1.600259000000000098e+00 -2.013583000000000123e+00 1.522239999999999982e-01 7.656119999999999592e-01 1.635461000000000054e+00 2.140268999999999977e+00 2.671650000000000080e+00 -1.977271000000000001e+00 1.036496000000000084e+00 -9.128929999999999545e-01 -7.765410000000000368e-01 -2.916608999999999785e+00 -8.580839999999999579e-01 -4.553749999999999742e-01 -1.453038999999999970e+00 6.827010000000000023e-01 -2.001555000000000195e+00 4.605859999999999954e-01 9.264599999999999502e-01 4.135880000000000112e-01 -2.090319999999999956e-01 4.257549000000000028e+00 -2.941673999999999900e+00 1.736040999999999945e+00 -2.441270000000000107e-01 -8.624110000000000387e-01 -7.293300000000000338e-01 2.031105000000000160e+00 6.857480000000000242e-01 1.372937999999999992e+00 5.527180000000000426e-01 1.831293000000000060e+00 1.536481999999999903e+00 3.383220000000000116e-01 -1.741810000000000025e-01 -1.727274999999999894e+00 1.864089000000000107e+00 -2.062360000000000027e-01 -8.923670000000000213e-01 -1.099898999999999960e+00 -6.121020000000000350e-01 9.765400000000000469e-02 -2.037151000000000156e+00 -6.761499999999999455e-02 2.978399999999999936e-01 2.001250999999999891e+00 3.029827000000000048e+00 -1.277066999999999952e+00 3.314670000000000116e-01 2.971659999999999857e-01 -5.735529999999999795e-01 1.140648000000000106e+00 1.948417999999999983e+00 1.651209999999999900e-01 4.970840000000000258e-01 -1.483792999999999918e+00 -1.042945999999999929e+00 -2.131650000000000045e+00 -7.498139999999999805e-01 4.184249999999999914e-01 -8.291929999999999579e-01 1.945179999999999965e-01 -1.096187999999999940e+00 -7.966000000000000858e-03 1.368560000000000054e-01 1.080039999999999889e+00 -2.478650000000000020e+00 1.112058999999999909e+00 -1.317825999999999942e+00 -4.330869999999999997e-01 9.303730000000000055e-01 -4.541569999999999774e-01 1.351342999999999961e+00 -1.189114999999999922e+00 -7.294000000000000136e-03 -1.296893999999999991e+00 1.785336999999999952e+00 1.719160000000000132e-01 2.698942000000000174e+00 -1.885488999999999971e+00 1.076184000000000029e+00 -1.163667000000000007e+00 1.416117000000000070e+00 -8.141469999999999541e-01 2.437110000000000110e-01 -1.792667000000000010e+00 1.356004999999999905e+00 4.219620000000000037e-01 1.357359999999999900e+00 -2.420430000000000081e+00 -4.133660000000000112e-01 -3.125950000000000117e-01 1.261039999999999939e-01 -5.717039999999999900e-01 -1.012969000000000008e+00 -3.390585000000000182e+00 -5.607550000000000034e-01 1.074400999999999939e+00 1.921750000000000069e+00 -2.127196999999999782e+00 1.453359999999999930e-01 -1.407845999999999931e+00 2.523054999999999826e+00 3.256200000000000067e-02 2.177729999999999944e-01 -7.420369999999999466e-01 -2.007508000000000070e+00 -1.387904999999999944e+00 -8.138069999999999471e-01 3.654199999999999809e-02 -1.541161999999999921e+00 -9.720800000000000274e-02 6.853860000000000507e-01 9.507079999999999975e-01 -1.593280000000000030e+00 1.121601999999999988e+00 1.757706999999999908e+00 7.981239999999999446e-01 -8.407959999999999878e-01 -4.211299999999999766e-02 -1.932040999999999897e+00 1.596519999999999939e+00 1.092983999999999956e+00 2.889900000000000246e-01 -3.116209999999999813e-01 -2.468650000000000011e-01 4.312710000000000155e-01 6.948899999999999522e-02 3.165350000000000108e-01 -1.656282000000000032e+00 2.141265999999999892e+00 2.701118999999999826e+00 -2.800270000000000259e-01 -1.735932000000000031e+00 -4.136589999999999989e-01 -2.072569000000000106e+00 3.102631999999999834e+00 9.404590000000000449e-01 -1.462728999999999946e+00 1.841504000000000030e+00 1.294812000000000074e+00 -1.074480000000000102e+00 -2.893914000000000097e+00 -3.324894000000000016e+00 -5.614740000000000286e-01 2.282766000000000073e+00 -5.083109999999999573e-01 -2.267898999999999887e+00 -7.311590000000000034e-01 -5.167700000000000071e-02 -1.289376000000000078e+00 -1.996787000000000090e+00 1.150299999999999934e-01 -1.001100000000000045e-01 1.328375000000000083e+00 -1.772786999999999891e+00 -9.367060000000000386e-01 -2.707800999999999902e+00 1.663019000000000025e+00 -5.264929999999999888e-01 -3.564300000000000246e-01 1.095949999999999980e-01 1.967715000000000103e+00 -9.722509999999999764e-01 -7.075679999999999747e-01 6.053340000000000387e-01 -4.256240000000000023e-01 4.768549999999999733e-01 -7.352710000000000079e-01 -2.188090000000000035e-01 -1.912862000000000062e+00 3.622110000000000052e-01 1.996982999999999953e+00 6.215549999999999686e-01 -6.735550000000000148e-01 -1.116225999999999940e+00 -4.368330000000000268e-01 -1.576229000000000102e+00 -1.126047000000000020e+00 -1.838373000000000035e+00 -9.193470000000000253e-01 -8.345240000000000435e-01 1.027309000000000028e+00 -4.785019999999999829e-01 -7.034479999999999622e-01 -7.805010000000000003e-01 -3.919000000000000261e-02 -3.710840000000000249e-01 -3.701349999999999918e-01 2.428103999999999818e+00 2.243539999999999979e-01 -5.363369999999999527e-01
-1.507994999999999974e+00 1.179048000000000096e+00 3.775739999999999874e+00 -1.109135999999999900e+00 -1.161275999999999975e+00 3.094876999999999878e+00 -9.436759999999999593e-01 5.090599999999999986e-02 2.506644000000000094e+00 -1.957740000000000036e-01 -8.109499999999999487e-01 8.516000000000000236e-01 -8.823180000000000467e-01 7.538749999999999618e-01 -1.344163999999999914e+00 -1.935861999999999972e+00 2.612957999999999892e+00 7.510099999999999554e-01 2.816103000000000023e+00 -9.319209999999999994e-01 4.524070000000000036e-01 4.118569999999999731e-01 -8.479290000000000438e-01 1.403143000000000029e+00 -1.691690000000000138e-01 -4.956119999999999970e-01 -7.923130000000000450e-01 1.820438999999999918e+00 -2.539655000000000218e+00 -5.503400000000000514e-01 5.131630000000000358e-01 -1.164919000000000038e+00 -1.359445000000000014e+00 1.265603999999999951e+00 4.194300000000000112e-02 -6.249569999999999848e-01 -9.948270000000000168e-01 1.868640000000000023e-01 1.738703000000000110e+00 6.921429999999999527e-01 1.699448000000000070e+00 -1.677410999999999985e+00 7.506500000000000394e-01 1.128997000000000028e+00 9.657329999999999526e-01 -8.637550000000000505e-01 8.111359999999999681e-01 2.121862999999999833e+00 -9.014480000000000270e-01 -8.011999999999999678e-02 6.863800000000000456e-02 -1.318943999999999894e+00 -2.679361999999999799e+00 2.015756000000000103e+00 -1.105353999999999948e+00 -2.762729999999999908e-01 -2.593409999999999882e-01 1.063701000000000008e+00 -2.467452999999999896e+00 -2.777074999999999960e+00 1.839509999999999978e+00 1.186852000000000018e+00 -2.229623000000000133e+00 -3.688009999999999899e-01 7.627000000000000446e-02 -8.415700000000000403e-01 -1.116775000000000073e+00 2.091820000000000068e-01 -4.781859999999999999e-01 -3.134955999999999854e+00 5.142100000000000143e-02 -2.979260000000000241e-01 -5.104649999999999466e-01 -3.962229999999999919e-01 1.233311999999999964e+00 -8.533399999999999319e-02 3.138247999999999927e+00 -9.801239999999999952e-01 -1.043603000000000058e+00 -6.396380000000000399e-01 -1.052135000000000042e+00 1.952000000000000124e-01 1.114795999999999898e+00 1.854476000000000013e+00 1.710742999999999903e+00 -1.678954999999999975e+00 1.241513000000000089e+00 -2.310329999999999884e-01 5.615560000000000551e-01 -3.551219999999999932e-01 2.076925000000000132e+00 2.498890999999999973e+00 -3.264769999999999950e+00 9.302150000000000141e-01 -1.045433000000000057e+00 -3.221849999999999992e-01 -6.948769999999999669e-01 -8.856720000000000148e-01 1.222450000000000037e+00 6.106610000000000094e-01 -1.840503999999999918e+00 -1.370382999999999907e+00 -2.160484999999999989e+00 -1.808180000000000065e-01 -8.443399999999999794e-01 -1.078508999999999940e+00 4.789840000000000209e-01 -8.140730000000000466e-01 1.342241999999999935e+00 3.510100000000000026e-02 7.299550000000000205e-01 -7.704870000000000330e-01 -1.145310000000000050e+00 1.036839999999999984e+00 -1.075711000000000084e+00 4.443889999999999785e-01 -4.181409999999999849e-01 -5.886320000000000441e-01 -1.289933999999999914e+00 2.133369999999999989e-01 2.870920000000000138e-01 -3.974409999999999887e-01 -4.297839999999999994e-01 -4.180499999999999772e-01 8.215780000000000305e-01 1.027897999999999978e+00 -2.835320000000000062e-01 9.838660000000000183e-01 5.657980000000000231e-01 1.307368000000000086e+00 1.021946000000000021e+00 8.714089999999999892e-01 -1.912200000000000011e-01 -6.009440000000000337e-01 1.848417999999999894e+00 2.486500000000000168e-02 3.086149999999999727e-01 1.360659999999999981e+00 -1.172503999999999991e+00 6.044900000000000273e-02 -6.813759999999999817e-01 2.769531999999999883e+00 3.313363999999999976e+00 9.460849999999999538e-01 1.177543999999999924e+00 -6.085220000000000073e-01 1.001271999999999940e+00 -5.084490000000000398e-01 1.700520999999999949e+00 -1.101863000000000037e+00 7.880030000000000090e-01 -2.480060000000000042e-01 1.246429000000000009e+00 -2.943416000000000032e+00 1.333487000000000089e+00 -1.002593999999999985e+00 1.806591000000000058e+00 -2.087156999999999929e+00 -1.854846999999999912e+00 -2.110579999999999956e-01 -3.621630000000000127e-01 -8.759439999999999449e-01 2.645790000000000086e-01 -1.566120000000000012e-01 -1.719843999999999928e+00 -3.005301999999999918e+00 3.288421000000000038e+00 3.411460000000000048e-01 -6.110430000000000028e-01 -7.708300000000000152e-01 -1.578197000000000072e+00 8.217670000000000252e-01 5.425330000000000430e-01 4.031069999999999931e-01 2.285632000000000108e+00 1.782624999999999904e+00 -3.122289999999999788e-01 4.658180000000000098e-01 -4.415350000000000108e-01 4.709119999999999973e-01 -6.000820000000000043e-01 1.746215999999999990e+00 3.939980000000000149e-01 -3.193759999999999932e-01 1.580734000000000083e+00 -5.322379999999999889e-01 -1.154625999999999930e+00 4.877399999999999791e-02 -5.346729999999999539e-01 -2.580500000000000016e-01 1.416199999999999959e-01 9.555249999999999577e-01 1.620991000000000071e+00 8.956410000000000204e-01 -6.670030000000000125e-01 2.859630000000000227e-01 -8.530290000000000372e-01 1.531651000000000096e+00 1.448396999999999935e+00 -4.571799999999999753e-01 -2.648125999999999980e+00 1.778612000000000082e+00 -5.594820000000000348e-01 8.214810000000000167e-01 6.179350000000000120e-01 -3.371199999999999752e-01 5.155170000000000030e-01 8.269609999999999461e-01 8.867260000000000142e-01 3.258800000000000030e-01 4.570759999999999823e-01 -1.284345999999999988e+00 1.009454999999999991e+00 -1.523773000000000044e+00 1.614570000000000061e+00 1.406031000000000031e+00 9.511650000000000382e-01 -2.074993999999999783e+00 -1.350360000000000005e+00 -1.399688000000000043e+00 -1.758628000000000080e+00 -1.608557000000000015e+00 -1.639200999999999908e+00 8.896760000000000224e-01 -4.452429999999999999e-01 1.110376999999999947e+00 9.959189999999999987e-01 -1.858276999999999957e+00 -1.902336000000000027e+00 1.287155999999999967e+00 -1.241365000000000052e+00 -1.371400000000000119e-01 6.771930000000000449e-01 9.486660000000000093e-01 -9.099859999999999616e-01 6.964150000000000063e-01 -1.133780999999999928e+00 -5.113199999999999967e-01 -7.229060000000000485e-01 1.713699999999999946e-01 1.735573999999999950e+00 -1.410873999999999961e+00 -9.556219999999999715e-01 4.622530000000000250e-01 -3.569919999999999760e-01 -5.267500000000000515e-01 1.628905999999999965e+00 -1.089744000000000046e+00 1.162384000000000084e+00 -5.991419999999999524e-01 -1.965919999999999890e+00 2.394572000000000145e+00 1.043980000000000047e-01 -1.303576999999999986e+00 -1.456843000000000110e+00 1.841382000000000074e+00 -1.171543000000000001e+00 -6.311639999999999473e-01 1.236931999999999920e+00 -7.920099999999999363e-02 -8.627139999999999809e-01 -4.110489999999999977e-01 -2.230830000000000035e-01 -2.914660000000000029e-01 2.112899999999999848e-02 -1.527967000000000075e+00 -1.789652000000000021e+00 2.606800000000000089e-02 4.488999999999999935e-03 2.818829999999999947e-01 -2.843609999999999749e-01 1.052961999999999954e+00 8.556019999999999737e-01 -4.094439999999999746e-01 -5.286009999999999875e-01 6.089890000000000025e-01
-2.869499999999999829e-01 -2.339580999999999911e+00 1.083768999999999982e+00 -2.381050000000000111e-01 2.070215999999999834e+00 1.814969000000000054e+00 2.383679999999999966e-01 1.426999999999999970e-02 -1.422107000000000010e+00 -1.092951999999999924e+00 1.729627000000000026e+00 3.540420000000000234e-01 2.947093999999999880e+00 4.038089999999999735e-01 1.690291999999999906e+00 2.105951999999999824e+00 3.401290000000000147e-01 1.507484000000000046e+00 -1.156066000000000038e+00 -1.284596000000000071e+00 -1.753962000000000021e+00 4.336630000000000207e-01 1.056562999999999919e+00 -8.584829999999999961e-01 1.761806999999999901e+00 1.806216000000000044e+00 -1.736002000000000045e+00 6.828039999999999665e-01 4.128769999999999940e-01 6.242830000000000323e-01 -2.357469000000000037e+00 -6.837699999999999889e-01 6.541350000000000220e-01 2.753486999999999796e+00 -2.272660000000000124e+00 7.555950000000000166e-01 -1.421775999999999929e+00 1.374770000000000048e+00 -6.382060000000000510e-01 -3.224908999999999804e+00 1.156716999999999995e+00 -5.731540000000000523e-01 -2.057847999999999900e+00 9.716660000000000297e-01 -4.756230000000000180e-01 1.035104999999999942e+00 -2.282846000000000153e+00 -1.222590000000000066e-01 6.020510000000000028e-01 -1.392120000000000024e+00 1.351148999999999933e+00 1.315469999999999973e-01 4.557069999999999732e-01 -4.232310000000000239e-01 1.854832999999999954e+00 2.898404000000000202e+00 5.984799999999999842e-02 2.594686999999999966e+00 -1.643189999999999928e+00 1.460328999999999988e+00 -2.532001000000000168e+00 7.441170000000000284e-01 5.483199999999999880e-02 -2.457497000000000043e+00 5.911030000000000451e-01 -8.656030000000000113e-01 -1.537920000000000120e-01 1.953478999999999965e+00 1.052488000000000090e+00 -1.274672000000000027e+00 1.621107000000000076e+00 -1.741781999999999941e+00 -1.537447000000000008e+00 -1.279627999999999988e+00 3.320250000000000146e-01 -1.003683000000000103e+00 -1.464712000000000014e+00 -4.648999999999999660e-02 -3.002900000000000014e-01 -7.605640000000000178e-01 -2.669610000000000039e-01 -1.179402999999999979e+00 -2.564350000000000240e-01 -9.302780000000000493e-01 2.557904000000000178e+00 -2.215443000000000051e+00 3.339799999999999991e-01 3.863409999999999900e-01 -2.262995999999999786e+00 -1.370327999999999991e+00 2.867700000000000249e-01 1.887483999999999940e+00 1.711281000000000052e+00 1.517087999999999992e+00 4.221799999999999858e-02 1.078408000000000033e+00 6.406380000000000408e-01 -7.069469999999999921e-01 -7.232250000000000068e-01 -1.868492999999999959e+00 3.622230000000000172e-01 -5.455330000000000457e-01 -7.577709999999999724e-01 6.261630000000000251e-01 -1.390010000000000134e-01 -4.264049999999999785e-01 1.163059999999999983e+00 6.457220000000000182e-01 1.603221000000000007e+00 -1.463310000000000111e+00 -6.149900000000000366e-01 1.293710000000000138e-01 4.277449999999999863e-01 6.587380000000000457e-01 -7.736049999999999871e-01 -7.177609999999999824e-01 4.002749999999999919e-01 1.647237000000000062e+00 -1.015203999999999995e+00 -2.462969999999999882e-01 6.650239999999999485e-01 1.279007000000000005e+00 2.119510000000000005e-01 1.610068000000000055e+00 1.182549999999999990e+00 -7.516389999999999461e-01 5.086490000000000178e-01 6.722460000000000102e-01 4.970910000000000051e-01 -2.384614000000000011e+00 -1.611069000000000084e+00 -6.211470000000000047e-01 -2.423883000000000010e+00 -2.293902999999999803e+00 -1.182460000000000067e+00 -8.216259999999999675e-01 -1.101533000000000095e+00 -2.766020000000000145e-01 1.178549000000000069e+00 1.721060000000000090e-01 1.188555999999999946e+00 5.797189999999999843e-01 -1.310356000000000076e+00 8.098009999999999931e-01 6.529749999999999721e-01 2.623440000000000216e-01 1.356556000000000095e+00 -7.209170000000000300e-01 9.068920000000000314e-01 -3.028600000000000181e-01 1.316537999999999986e+00 9.454100000000000004e-02 -2.769090000000000162e-01 -1.081126000000000031e+00 6.325709999999999944e-01 1.084840999999999944e+00 -6.082020000000000204e-01 -4.088390000000000080e-01 1.616487000000000007e+00 1.767398000000000025e+00 -1.904160000000000019e-01 7.944390000000000063e-01 1.479265000000000052e+00 9.929029999999999800e-01 3.765699000000000130e+00 -1.039147999999999961e+00 9.120939999999999603e-01 -1.111375000000000002e+00 -6.640730000000000244e-01 -1.164104000000000028e+00 5.980109999999999593e-01 -9.359999999999999831e-04 -9.820940000000000225e-01 7.082399999999999807e-02 4.762970000000000259e-01 -1.924338000000000104e+00 -2.653429999999999955e-01 -1.531743000000000077e+00 5.878099999999999992e-02 -5.924340000000000162e-01 -5.176420000000000465e-01 -2.836589999999999945e-01 1.211327000000000043e+00 -6.222119999999999873e-01 -8.601069999999999549e-01 7.831430000000000335e-01 -7.807650000000000423e-01 1.823464999999999892e+00 -1.033288999999999902e+00 -5.263430000000000053e-01 1.739080000000000070e-01 -7.493840000000000501e-01 1.077153999999999945e+00 6.317749999999999755e-01 -6.713189999999999991e-01 2.190549999999999997e-01 7.478799999999999337e-02 -1.102783999999999986e+00 9.420720000000000205e-01 6.153210000000000068e-01 -2.299160000000000093e-01 -5.266750000000000043e-01 3.120312999999999892e+00 -1.594205000000000094e+00 -7.215549999999999464e-01 9.578309999999999880e-01 -5.198400000000000243e-02 1.604760000000000075e-01 1.202472999999999903e+00 -6.809640000000000137e-01 -6.040470000000000006e-01 -1.462183000000000010e+00 -1.510243000000000002e+00 -3.604970000000000119e-01 -2.570329000000000086e+00 -5.844300000000000050e-01 1.912570000000000103e-01 -6.267679999999999918e-01 -9.634449999999999958e-01 -4.361329999999999929e-01 -1.560739000000000098e+00 -2.606430000000000025e+00 4.965370000000000061e-01 -1.610419999999999907e-01 -4.124979999999999758e-01 -4.099749999999999783e-01 2.045967000000000091e+00 -5.053569999999999451e-01 -9.200700000000000545e-01 2.219760000000000066e-01 -2.051600000000000090e-01 7.812600000000000100e-02 1.309941000000000022e+00 4.332059999999999800e-01 -2.097548000000000190e+00 -1.128347999999999907e+00 2.092487000000000208e+00 -8.194300000000000195e-02 7.836239999999999872e-01 1.044896000000000047e+00 7.087170000000000414e-01 -8.213660000000000405e-01 -1.751000000000000056e-01 1.096902999999999961e+00 -1.785641000000000034e+00 2.493482999999999894e+00 1.804456000000000060e+00 -1.151308999999999916e+00 8.143799999999999928e-01 9.861750000000000238e-01 2.182600000000000165e-02 1.053522999999999987e+00 -6.558000000000000496e-01 2.802529999999999744e-01 -2.045395000000000074e+00 -1.534600000000000131e-01 8.134829999999999561e-01 -2.912863999999999898e+00 1.039986999999999995e+00 -2.787180000000000213e-01 2.306979999999999864e-01 -5.600239999999999663e-01 1.618845000000000089e+00 -1.741131999999999902e+00 1.542731000000000074e+00 5.202240000000000197e-01 4.873629999999999907e-01 4.890769999999999840e-01 -1.196134999999999948e+00 -5.377480000000000038e-01 -7.100000000000000408e-03 -7.299980000000000357e-01 -1.151173999999999920e+00 3.820189999999999975e-01 2.153039999999999843e+00 2.076702000000000048e+00