-8.934945295500000384e+02
-9.131172575199999528e+02
-8.964753423600000133e+02
-9.021567136600000367e+02
-8.957119313599999941e+02
-9.132089039200000116e+02
-8.954855304300000398e+02
-8.878572510300000431e+02
-8.990074923800000306e+02
-9.093294782499999656e+02
-9.031257150899999715e+02
-8.940645854900000131e+02
-9.077596346100000346e+02
-9.068280283899999858e+02
-8.956915179100000159e+02
-9.154731266100000084e+02
-9.067620950799999946e+02
-8.963887142300000050e+02
-9.052133739500000047e+02
-8.890589649700000336e+02
-8.967897844799999802e+02
-8.828664722800000391e+02
-9.029869385099999590e+02
-9.124272583099999565e+02
-8.947342706599999929e+02
-9.046668714099999988e+02
-8.954007343099999616e+02
-8.990426475399999617e+02
-8.994938300500000423e+02
-9.057961415900000475e+02
-8.920959336700000222e+02
-8.953582449599999791e+02
-9.068265531900000269e+02
-9.000430199700000458e+02
-8.873483525799999825e+02
-8.941491046500000266e+02
-8.875800529699999970e+02
-9.049668607099999917e+02
-9.039633859399999665e+02
-8.792084472200000391e+02
-9.064477663200000279e+02
-8.966416351100000384e+02
-8.975186436899999762e+02
-8.958257418399999779e+02
-8.887157904900000176e+02
-8.914226844199999960e+02
-8.947012999900000523e+02
-8.894448278800000480e+02
-9.053506522200000290e+02
-9.035276381300000139e+02
