1.043710642299999947e+01 0.000000000000000000e+00 0.000000000000000000e+00 -2.119825900000000055e-02 1.081571983599999953e+01 0.000000000000000000e+00 1.129376200000000059e-02 1.414038000000000057e-03 1.037147077000000017e+01
1.038817393299999914e+01 0.000000000000000000e+00 0.000000000000000000e+00 -2.109887499999999957e-02 1.076501228499999918e+01 0.000000000000000000e+00 1.124081300000000054e-02 1.407409000000000091e-03 1.032284600000000019e+01
1.038731619200000011e+01 0.000000000000000000e+00 0.000000000000000000e+00 -2.109713300000000055e-02 1.076412342899999963e+01 0.000000000000000000e+00 1.123988499999999981e-02 1.407292999999999999e-03 1.032199365399999991e+01
1.041052965000000086e+01 0.000000000000000000e+00 0.000000000000000000e+00 -2.114428000000000141e-02 1.078817897100000067e+01 0.000000000000000000e+00 1.126500400000000034e-02 1.410437999999999970e-03 1.034506112899999941e+01
1.042702292200000080e+01 0.000000000000000000e+00 0.000000000000000000e+00 -2.117777900000000074e-02 1.080527054899999939e+01 0.000000000000000000e+00 1.128285099999999999e-02 1.412672000000000016e-03 1.036145068100000088e+01
1.041624044299999952e+01 0.000000000000000000e+00 0.000000000000000000e+00 -2.115587899999999896e-02 1.079409692800000009e+01 0.000000000000000000e+00 1.127118300000000059e-02 1.411211000000000106e-03 1.035073600900000024e+01
1.045238533700000083e+01 0.000000000000000000e+00 0.000000000000000000e+00 -2.122929100000000083e-02 1.083155300399999987e+01 0.000000000000000000e+00 1.131029499999999972e-02 1.416107999999999907e-03 1.038665360000000071e+01
1.038010436200000086e+01 0.000000000000000000e+00 0.000000000000000000e+00 -2.108248500000000150e-02 1.075664998499999925e+01 0.000000000000000000e+00 1.123208099999999966e-02 1.406315999999999903e-03 1.031482717699999974e+01
1.016642105899999926e+01 0.000000000000000000e+00 0.000000000000000000e+00 -2.064848400000000167e-02 1.053521516900000066e+01 0.000000000000000000e+00 1.100085899999999998e-02 1.377364999999999970e-03 1.010248765999999954e+01
1.023618474999999961e+01 0.000000000000000000e+00 0.000000000000000000e+00 -2.079017799999999944e-02 1.060750958699999913e+01 0.000000000000000000e+00 1.107634899999999922e-02 1.386817000000000041e-03 1.017181262899999972e+01
1.048476751199999946e+01 0.000000000000000000e+00 0.000000000000000000e+00 -2.129506100000000055e-02 1.086510986500000087e+01 0.000000000000000000e+00 1.134533499999999979e-02 1.420494999999999917e-03 1.041883213300000044e+01
1.018970041200000054e+01 0.000000000000000000e+00 0.000000000000000000e+00 -2.069576600000000086e-02 1.055933899699999934e+01 0.000000000000000000e+00 1.102604899999999957e-02 1.380518999999999974e-03 1.012562061699999916e+01
1.044999595500000034e+01 0.000000000000000000e+00 0.000000000000000000e+00 -2.122443800000000172e-02 1.082907694500000062e+01 0.000000000000000000e+00 1.130770900000000086e-02 1.415784999999999917e-03 1.038427924299999994e+01
1.046185281600000039e+01 0.000000000000000000e+00 0.000000000000000000e+00 -2.124851999999999991e-02 1.084136392199999932e+01 0.000000000000000000e+00 1.132053899999999926e-02 1.417391000000000050e-03 1.039606153999999982e+01
1.044199872199999923e+01 0.000000000000000000e+00 0.000000000000000000e+00 -2.120819499999999913e-02 1.082078960599999995e+01 0.000000000000000000e+00 1.129905600000000003e-02 1.414700999999999979e-03 1.037633230199999979e+01
1.019703081299999958e+01 0.000000000000000000e+00 0.000000000000000000e+00 -2.071065399999999848e-02 1.056693531300000011e+01 0.000000000000000000e+00 1.103398100000000000e-02 1.381512000000000105e-03 1.013290491899999957e+01
1.018566908000000026e+01 0.000000000000000000e+00 0.000000000000000000e+00 -2.068757800000000160e-02 1.055516142499999965e+01 0.000000000000000000e+00 1.102168700000000050e-02 1.379973000000000050e-03 1.012161463600000033e+01
1.054740382600000004e+01 0.000000000000000000e+00 0.000000000000000000e+00 -2.142227799999999946e-02 1.093001835499999963e+01 0.000000000000000000e+00 1.141311199999999956e-02 1.428982000000000082e-03 1.048107454700000041e+01
1.041208504099999921e+01 0.000000000000000000e+00 0.000000000000000000e+00 -2.114743900000000051e-02 1.078979078599999930e+01 0.000000000000000000e+00 1.126668699999999919e-02 1.410648000000000023e-03 1.034660673900000027e+01
1.042320128699999948e+01 0.000000000000000000e+00 0.000000000000000000e+00 -2.117001699999999931e-02 1.080131028199999932e+01 0.000000000000000000e+00 1.127871499999999992e-02 1.412154000000000100e-03 1.035765307900000032e+01
1.055264967199999937e+01 0.000000000000000000e+00 0.000000000000000000e+00 -2.143293300000000123e-02 1.093545449800000036e+01 0.000000000000000000e+00 1.141878900000000037e-02 1.429691999999999985e-03 1.048628740400000048e+01
1.041081018200000052e+01 0.000000000000000000e+00 0.000000000000000000e+00 -2.114484999999999976e-02 1.078846968000000039e+01 0.000000000000000000e+00 1.126530700000000045e-02 1.410475999999999917e-03 1.034533989800000064e+01
1.051064580299999918e+01 0.000000000000000000e+00 0.000000000000000000e+00 -2.134762100000000065e-02 1.089192690900000038e+01 0.000000000000000000e+00 1.137333700000000072e-02 1.424001999999999950e-03 1.044454768399999978e+01
1.045971460400000019e+01 0.000000000000000000e+00 0.000000000000000000e+00 -2.124417699999999951e-02 1.083914814499999935e+01 0.000000000000000000e+00 1.131822600000000067e-02 1.417101000000000038e-03 1.039393677500000024e+01
1.017011071900000019e+01 0.000000000000000000e+00 0.000000000000000000e+00 -2.065597799999999845e-02 1.053903867400000038e+01 0.000000000000000000e+00 1.100485200000000073e-02 1.377865000000000036e-03 1.010615411700000088e+01
1.021996822800000082e+01 0.000000000000000000e+00 0.000000000000000000e+00 -2.075724099999999919e-02 1.059070479999999925e+01 0.000000000000000000e+00 1.105880100000000005e-02 1.384620000000000035e-03 1.015569808799999940e+01
1.021704232799999978e+01 0.000000000000000000e+00 0.000000000000000000e+00 -2.075129800000000135e-02 1.058767276000000024e+01 0.000000000000000000e+00 1.105563499999999942e-02 1.384224000000000088e-03 1.015279058800000023e+01
1.019939863099999933e+01 0.000000000000000000e+00 0.000000000000000000e+00 -2.071546299999999993e-02 1.056938902599999963e+01 0.000000000000000000e+00 1.103654400000000056e-02 1.381833000000000063e-03 1.013525784700000010e+01
1.043664777000000043e+01 0.000000000000000000e+00 0.000000000000000000e+00 -2.119732699999999845e-02 1.081524454500000054e+01 0.000000000000000000e+00 1.129326599999999972e-02 1.413975999999999948e-03 1.037101500099999996e+01
1.045897881800000029e+01 0.000000000000000000e+00 0.000000000000000000e+00 -2.124268299999999832e-02 1.083838566800000081e+01 0.000000000000000000e+00 1.131742999999999985e-02 1.417002000000000105e-03 1.039320561599999948e+01
1.044484409900000088e+01 0.000000000000000000e+00 0.000000000000000000e+00 -2.121397499999999950e-02 1.082373820199999948e+01 0.000000000000000000e+00 1.130213499999999961e-02 1.415086999999999985e-03 1.037915978600000066e+01
1.038176430699999919e+01 0.000000000000000000e+00 0.000000000000000000e+00 -2.108585699999999952e-02 1.075837014500000066e+01 0.000000000000000000e+00 1.123387699999999975e-02 1.406539999999999960e-03 1.031647668199999934e+01
1.026661575700000029e+01 0.000000000000000000e+00 0.000000000000000000e+00 -2.085198400000000049e-02 1.063904450000000068e+01 0.000000000000000000e+00 1.110927800000000021e-02 1.390940000000000015e-03 1.020205226500000073e+01
1.045955176700000067e+01 0.000000000000000000e+00 0.000000000000000000e+00 -2.124384699999999973e-02 1.083897939999999949e+01 0.000000000000000000e+00 1.131804999999999964e-02 1.417078999999999908e-03 1.039377496200000017e+01
1.047929573799999936e+01 0.000000000000000000e+00 0.000000000000000000e+00 -2.128394700000000098e-02 1.085943959799999980e+01 0.000000000000000000e+00 1.133941400000000078e-02 1.419754000000000068e-03 1.041339476899999994e+01
1.049957992699999920e+01 0.000000000000000000e+00 0.000000000000000000e+00 -2.132514599999999969e-02 1.088045961000000084e+01 0.000000000000000000e+00 1.136136299999999932e-02 1.422501999999999968e-03 1.043355139800000053e+01
1.049264841499999967e+01 0.000000000000000000e+00 0.000000000000000000e+00 -2.131106699999999951e-02 1.087327665299999957e+01 0.000000000000000000e+00 1.135386300000000050e-02 1.421563000000000037e-03 1.042666347599999987e+01
1.011783233899999956e+01 0.000000000000000000e+00 0.000000000000000000e+00 -2.054979800000000106e-02 1.048486385800000065e+01 0.000000000000000000e+00 1.094828200000000015e-02 1.370782000000000077e-03 1.005420449900000079e+01
1.042619435599999989e+01 0.000000000000000000e+00 0.000000000000000000e+00 -2.117609599999999842e-02 1.080441192600000022e+01 0.000000000000000000e+00 1.128195400000000029e-02 1.412559999999999987e-03 1.036062732499999939e+01
1.037252204199999994e+01 0.000000000000000000e+00 0.000000000000000000e+00 -2.106708499999999928e-02 1.074879261100000072e+01 0.000000000000000000e+00 1.122387700000000016e-02 1.405287999999999980e-03 1.030729254000000061e+01
1.051295436500000058e+01 0.000000000000000000e+00 0.000000000000000000e+00 -2.135230999999999935e-02 1.089431921599999953e+01 0.000000000000000000e+00 1.137583500000000081e-02 1.424314000000000092e-03 1.044684172800000077e+01
1.037658359699999977e+01 0.000000000000000000e+00 0.000000000000000000e+00 -2.107533400000000112e-02 1.075300150099999996e+01 0.000000000000000000e+00 1.122827199999999921e-02 1.405839000000000090e-03 1.031132855200000087e+01
1.044018200500000049e+01 0.000000000000000000e+00 0.000000000000000000e+00 -2.120450600000000144e-02 1.081890698700000009e+01 0.000000000000000000e+00 1.129708999999999922e-02 1.414455000000000009e-03 1.037452700999999955e+01
1.034773830600000011e+01 0.000000000000000000e+00 0.000000000000000000e+00 -2.101674799999999829e-02 1.072310982800000012e+01 0.000000000000000000e+00 1.119705900000000053e-02 1.401930999999999924e-03 1.028266466100000009e+01
1.040496229400000061e+01 0.000000000000000000e+00 0.000000000000000000e+00 -2.113297299999999934e-02 1.078240965600000045e+01 0.000000000000000000e+00 1.125897900000000056e-02 1.409682999999999900e-03 1.033952878500000061e+01
1.037781076499999955e+01 0.000000000000000000e+00 0.000000000000000000e+00 -2.107782700000000037e-02 1.075427318600000071e+01 0.000000000000000000e+00 1.122959899999999983e-02 1.406005000000000102e-03 1.031254800299999985e+01
1.051956623799999946e+01 0.000000000000000000e+00 0.000000000000000000e+00 -2.136573900000000165e-02 1.090117093900000000e+01 0.000000000000000000e+00 1.138299000000000082e-02 1.425210000000000105e-03 1.045341202100000011e+01
1.052941589899999997e+01 0.000000000000000000e+00 0.000000000000000000e+00 -2.138574400000000167e-02 1.091137790400000007e+01 0.000000000000000000e+00 1.139364799999999928e-02 1.426544999999999983e-03 1.046319974100000039e+01
1.038203588800000077e+01 0.000000000000000000e+00 0.000000000000000000e+00 -2.108640800000000093e-02 1.075865157900000035e+01 0.000000000000000000e+00 1.123417099999999939e-02 1.406577000000000001e-03 1.031674655600000001e+01
1.016955870199999978e+01 0.000000000000000000e+00 0.000000000000000000e+00 -2.065485699999999869e-02 1.053846663300000053e+01 0.000000000000000000e+00 1.100425399999999977e-02 1.377790000000000048e-03 1.010560557199999998e+01
1.038531232699999940e+01 0.000000000000000000e+00 0.000000000000000000e+00 -2.109306299999999870e-02 1.076204687299999918e+01 0.000000000000000000e+00 1.123771699999999950e-02 1.407021000000000053e-03 1.032000239000000086e+01
1.035115185899999979e+01 0.000000000000000000e+00 0.000000000000000000e+00 -2.102368099999999893e-02 1.072664720899999935e+01 0.000000000000000000e+00 1.120075199999999958e-02 1.402393000000000042e-03 1.028605674699999994e+01
1.049161492600000045e+01 0.000000000000000000e+00 0.000000000000000000e+00 -2.130896800000000105e-02 1.087220567399999993e+01 0.000000000000000000e+00 1.135274399999999968e-02 1.421423000000000001e-03 1.042563648600000015e+01
1.049510138599999998e+01 0.000000000000000000e+00 0.000000000000000000e+00 -2.131604900000000011e-02 1.087581860699999936e+01 0.000000000000000000e+00 1.135651700000000000e-02 1.421895999999999967e-03 1.042910102099999925e+01
1.044190070700000028e+01 0.000000000000000000e+00 0.000000000000000000e+00 -2.120799599999999979e-02 1.082068803599999995e+01 0.000000000000000000e+00 1.129895000000000031e-02 1.414688000000000100e-03 1.037623490400000037e+01
1.052336750599999959e+01 0.000000000000000000e+00 0.000000000000000000e+00 -2.137345900000000090e-02 1.090511010100000000e+01 0.000000000000000000e+00 1.138710300000000085e-02 1.425725000000000083e-03 1.045718938399999942e+01
1.053721469499999941e+01 0.000000000000000000e+00 0.000000000000000000e+00 -2.140158400000000127e-02 1.091945960600000021e+01 0.000000000000000000e+00 1.140208699999999999e-02 1.427600999999999913e-03 1.047094949200000080e+01
1.049690084000000034e+01 0.000000000000000000e+00 0.000000000000000000e+00 -2.131970399999999835e-02 1.087768333800000065e+01 0.000000000000000000e+00 1.135846400000000041e-02 1.422138999999999999e-03 1.043088915899999947e+01
1.038844582900000013e+01 0.000000000000000000e+00 0.000000000000000000e+00 -2.109942700000000046e-02 1.076529404499999920e+01 0.000000000000000000e+00 1.124110700000000018e-02 1.407445999999999914e-03 1.032311618700000011e+01
1.037436904299999973e+01 0.000000000000000000e+00 0.000000000000000000e+00 -2.107083599999999904e-02 1.075070661400000027e+01 0.000000000000000000e+00 1.122587499999999974e-02 1.405538999999999920e-03 1.030912792600000039e+01
1.007929054599999930e+01 0.000000000000000000e+00 0.000000000000000000e+00 -2.047151800000000105e-02 1.044492393500000027e+01 0.000000000000000000e+00 1.090657700000000063e-02 1.365560999999999945e-03 1.001590508299999982e+01
1.043681217800000027e+01 0.000000000000000000e+00 0.000000000000000000e+00 -2.119766099999999959e-02 1.081541491700000002e+01 0.000000000000000000e+00 1.129344399999999971e-02 1.413998000000000078e-03 1.037117837499999951e+01
1.032214668199999963e+01 0.000000000000000000e+00 0.000000000000000000e+00 -2.096477000000000063e-02 1.069658984900000043e+01 0.000000000000000000e+00 1.116936699999999949e-02 1.398462999999999963e-03 1.025723397400000003e+01
1.036250268300000066e+01 0.000000000000000000e+00 0.000000000000000000e+00 -2.104673500000000044e-02 1.073840979200000056e+01 0.000000000000000000e+00 1.121303499999999967e-02 1.403930999999999972e-03 1.029733618799999917e+01
1.007952391299999917e+01 0.000000000000000000e+00 0.000000000000000000e+00 -2.047199200000000135e-02 1.044516576800000074e+01 0.000000000000000000e+00 1.090682999999999930e-02 1.365592000000000108e-03 1.001613698300000088e+01
1.041295788100000053e+01 0.000000000000000000e+00 0.000000000000000000e+00 -2.114921200000000057e-02 1.079069528900000030e+01 0.000000000000000000e+00 1.126763100000000017e-02 1.410767000000000054e-03 1.034747409000000040e+01
