1.037059851599999938e+01 0.000000000000000000e+00 0.000000000000000000e+00 -1.647226400000000035e-02 1.048949904300000036e+01 0.000000000000000000e+00 -1.780738359999999965e+00 2.461686500000000166e-02 1.059603716900000059e+01
1.045189290399999926e+01 0.000000000000000000e+00 0.000000000000000000e+00 -1.660138900000000112e-02 1.057172548399999989e+01 0.000000000000000000e+00 -1.794697441999999921e+00 2.480983499999999883e-02 1.067909875500000005e+01
1.071278832700000017e+01 0.000000000000000000e+00 0.000000000000000000e+00 -4.119361999999999677e-03 1.081766522300000055e+01 0.000000000000000000e+00 -1.869937718999999943e+00 1.980046099999999837e-02 1.092798294500000011e+01
1.030408089700000041e+01 0.000000000000000000e+00 0.000000000000000000e+00 -3.962203000000000079e-03 1.040495659699999997e+01 0.000000000000000000e+00 -1.798597054000000028e+00 1.904504599999999950e-02 1.051106554799999948e+01
1.034718242399999966e+01 0.000000000000000000e+00 0.000000000000000000e+00 -1.643507099999999901e-02 1.046581448100000067e+01 0.000000000000000000e+00 -1.776717576000000021e+00 2.456128200000000025e-02 1.057211205199999959e+01
1.039804142100000028e+01 0.000000000000000000e+00 0.000000000000000000e+00 -3.998332999999999748e-03 1.049983698199999971e+01 0.000000000000000000e+00 -1.814998043999999977e+00 1.921871400000000132e-02 1.060691351600000054e+01
1.056284744599999925e+01 0.000000000000000000e+00 0.000000000000000000e+00 -4.061705999999999997e-03 1.066625643899999965e+01 0.000000000000000000e+00 -1.843765250999999994e+00 1.952332500000000109e-02 1.077503010600000088e+01
1.035978413399999987e+01 0.000000000000000000e+00 0.000000000000000000e+00 -1.645508700000000019e-02 1.047856067200000041e+01 0.000000000000000000e+00 -1.778881420000000046e+00 2.459119499999999972e-02 1.058498770099999930e+01
1.036386508100000015e+01 0.000000000000000000e+00 0.000000000000000000e+00 -3.985192000000000248e-03 1.046532606000000065e+01 0.000000000000000000e+00 -1.809032498000000100e+00 1.915554499999999952e-02 1.057205065499999996e+01
1.037320848499999926e+01 0.000000000000000000e+00 0.000000000000000000e+00 -3.988784000000000426e-03 1.047476093500000083e+01 0.000000000000000000e+00 -1.810663407000000058e+00 1.917281499999999930e-02 1.058158174599999946e+01
1.022073769200000015e+01 0.000000000000000000e+00 0.000000000000000000e+00 -3.930155000000000280e-03 1.032079747200000064e+01 0.000000000000000000e+00 -1.784049337999999985e+00 1.889100299999999996e-02 1.042604817399999995e+01
1.052959823499999992e+01 0.000000000000000000e+00 0.000000000000000000e+00 -4.048920999999999597e-03 1.063268172199999917e+01 0.000000000000000000e+00 -1.837961536999999979e+00 1.946186999999999917e-02 1.074111299600000002e+01
1.027576619399999913e+01 0.000000000000000000e+00 0.000000000000000000e+00 -3.951315000000000383e-03 1.037636469599999955e+01 0.000000000000000000e+00 -1.793654668999999924e+00 1.899271199999999840e-02 1.048218206900000027e+01
1.030024594700000051e+01 0.000000000000000000e+00 0.000000000000000000e+00 -1.636051900000000045e-02 1.041833987100000058e+01 0.000000000000000000e+00 -1.768658100999999983e+00 2.444986799999999960e-02 1.052415525800000040e+01
1.035686468900000001e+01 0.000000000000000000e+00 0.000000000000000000e+00 -3.982499999999999929e-03 1.045825713500000020e+01 0.000000000000000000e+00 -1.807810565999999897e+00 1.914260699999999898e-02 1.056490964099999985e+01
1.026169977300000014e+01 0.000000000000000000e+00 0.000000000000000000e+00 -1.629929399999999889e-02 1.037935175900000040e+01 0.000000000000000000e+00 -1.762039327000000100e+00 2.435837000000000072e-02 1.048477115799999915e+01
1.047148882499999978e+01 0.000000000000000000e+00 0.000000000000000000e+00 -1.663251400000000102e-02 1.059154607500000012e+01 0.000000000000000000e+00 -1.798062263000000049e+00 2.485634999999999928e-02 1.069912065599999984e+01
1.049158712200000032e+01 0.000000000000000000e+00 0.000000000000000000e+00 -1.666443800000000017e-02 1.061187480200000088e+01 0.000000000000000000e+00 -1.801513346999999987e+00 2.490405799999999975e-02 1.071965585499999918e+01
1.028859240599999936e+01 0.000000000000000000e+00 0.000000000000000000e+00 -3.956247000000000409e-03 1.038931647499999933e+01 0.000000000000000000e+00 -1.795893508000000027e+00 1.901641899999999968e-02 1.049526592900000033e+01
1.045000066100000069e+01 0.000000000000000000e+00 0.000000000000000000e+00 -1.659838300000000127e-02 1.056981154600000039e+01 0.000000000000000000e+00 -1.794372524999999996e+00 2.480534300000000053e-02 1.067716537699999968e+01
1.038959918099999946e+01 0.000000000000000000e+00 0.000000000000000000e+00 -1.650244400000000153e-02 1.050871755400000040e+01 0.000000000000000000e+00 -1.784000969999999908e+00 2.466196699999999992e-02 1.061545087500000051e+01
1.016733204199999996e+01 0.000000000000000000e+00 0.000000000000000000e+00 -1.614940299999999967e-02 1.028390208699999953e+01 0.000000000000000000e+00 -1.745835416999999889e+00 2.413436799999999979e-02 1.038835203800000073e+01
1.038822068099999996e+01 0.000000000000000000e+00 0.000000000000000000e+00 -1.650025499999999840e-02 1.050732324900000059e+01 0.000000000000000000e+00 -1.783764267000000014e+00 2.465869500000000131e-02 1.061404240899999962e+01
1.045510209699999926e+01 0.000000000000000000e+00 0.000000000000000000e+00 -1.660648600000000016e-02 1.057497146999999948e+01 0.000000000000000000e+00 -1.795248493999999972e+00 2.481745200000000026e-02 1.068237770900000072e+01
1.030891629399999943e+01 0.000000000000000000e+00 0.000000000000000000e+00 -1.637428999999999968e-02 1.042710962499999994e+01 0.000000000000000000e+00 -1.770146889000000057e+00 2.447044899999999829e-02 1.053301408399999950e+01
1.044455351799999931e+01 0.000000000000000000e+00 0.000000000000000000e+00 -4.016218999999999692e-03 1.054680442699999965e+01 0.000000000000000000e+00 -1.823116819000000000e+00 1.930468200000000009e-02 1.065435993200000020e+01
1.029208850100000028e+01 0.000000000000000000e+00 0.000000000000000000e+00 -1.634756199999999951e-02 1.041008889799999970e+01 0.000000000000000000e+00 -1.767257384000000098e+00 2.443050399999999872e-02 1.051582048300000061e+01
1.038243483699999992e+01 0.000000000000000000e+00 0.000000000000000000e+00 -1.649106399999999972e-02 1.050147106900000082e+01 0.000000000000000000e+00 -1.782770777999999945e+00 2.464496099999999995e-02 1.060813079000000059e+01
1.048157497999999954e+01 0.000000000000000000e+00 0.000000000000000000e+00 -1.664853499999999903e-02 1.060174786900000043e+01 0.000000000000000000e+00 -1.799794160000000032e+00 2.488029199999999830e-02 1.070942606700000077e+01
1.058027903900000055e+01 0.000000000000000000e+00 0.000000000000000000e+00 -4.068409000000000261e-03 1.068385868500000058e+01 0.000000000000000000e+00 -1.846807969000000105e+00 1.955554400000000109e-02 1.079281185800000031e+01
1.034264777199999941e+01 0.000000000000000000e+00 0.000000000000000000e+00 -1.642786800000000172e-02 1.046122783899999931e+01 0.000000000000000000e+00 -1.775938929999999916e+00 2.455051800000000034e-02 1.056747882400000016e+01
1.038026375599999973e+01 0.000000000000000000e+00 0.000000000000000000e+00 -3.991497000000000100e-03 1.048188527699999995e+01 0.000000000000000000e+00 -1.811894917999999910e+00 1.918585500000000166e-02 1.058877874100000049e+01
1.041742080600000087e+01 0.000000000000000000e+00 0.000000000000000000e+00 -4.005785000000000422e-03 1.051940608900000029e+01 0.000000000000000000e+00 -1.818380751999999934e+00 1.925453200000000129e-02 1.062668218700000011e+01
1.036878888500000073e+01 0.000000000000000000e+00 0.000000000000000000e+00 -3.987084999999999588e-03 1.047029806799999996e+01 0.000000000000000000e+00 -1.809891957000000051e+00 1.916464600000000046e-02 1.057707336600000048e+01
1.050658283900000001e+01 0.000000000000000000e+00 0.000000000000000000e+00 -4.040071000000000113e-03 1.060944100799999923e+01 0.000000000000000000e+00 -1.833944156000000048e+00 1.941933100000000148e-02 1.071763527599999932e+01
1.029459260399999998e+01 0.000000000000000000e+00 0.000000000000000000e+00 -3.958554999999999886e-03 1.039537541500000017e+01 0.000000000000000000e+00 -1.796940854999999893e+00 1.902750900000000148e-02 1.050138665799999949e+01
1.027533018099999929e+01 0.000000000000000000e+00 0.000000000000000000e+00 -1.632094400000000042e-02 1.039313844199999970e+01 0.000000000000000000e+00 -1.764379807999999938e+00 2.439072499999999852e-02 1.049869786700000063e+01
1.041392711199999965e+01 0.000000000000000000e+00 0.000000000000000000e+00 -4.004442000000000418e-03 1.051587819300000071e+01 0.000000000000000000e+00 -1.817770920999999928e+00 1.924807499999999991e-02 1.062311831399999917e+01
1.046131270200000074e+01 0.000000000000000000e+00 0.000000000000000000e+00 -4.022663000000000107e-03 1.056372768199999967e+01 0.000000000000000000e+00 -1.826042166999999994e+00 1.933565799999999862e-02 1.067145576899999959e+01
1.045619637599999940e+01 0.000000000000000000e+00 0.000000000000000000e+00 -4.020695999999999819e-03 1.055856126800000006e+01 0.000000000000000000e+00 -1.825149101999999912e+00 1.932620100000000118e-02 1.066623666799999981e+01
1.031877871000000013e+01 0.000000000000000000e+00 0.000000000000000000e+00 -3.967855000000000167e-03 1.041979830000000007e+01 0.000000000000000000e+00 -1.801162586000000010e+00 1.907221200000000158e-02 1.052605860499999935e+01
1.035639518800000047e+01 0.000000000000000000e+00 0.000000000000000000e+00 -3.982318999999999790e-03 1.045778303800000053e+01 0.000000000000000000e+00 -1.807728613999999956e+00 1.914173900000000136e-02 1.056443070899999981e+01
1.034103024100000034e+01 0.000000000000000000e+00 0.000000000000000000e+00 -3.976411000000000008e-03 1.044226767099999975e+01 0.000000000000000000e+00 -1.805046632999999900e+00 1.911333999999999950e-02 1.054875711699999918e+01
1.046614823600000044e+01 0.000000000000000000e+00 0.000000000000000000e+00 -4.024521999999999995e-03 1.056861055499999935e+01 0.000000000000000000e+00 -1.826886218999999922e+00 1.934459499999999915e-02 1.067638843599999987e+01
1.054503579800000068e+01 0.000000000000000000e+00 0.000000000000000000e+00 -4.054857000000000253e-03 1.064827041700000088e+01 0.000000000000000000e+00 -1.840656193999999912e+00 1.949040299999999989e-02 1.075686066299999943e+01
1.035998624199999973e+01 0.000000000000000000e+00 0.000000000000000000e+00 -3.983699999999999741e-03 1.046140924800000072e+01 0.000000000000000000e+00 -1.808355439000000064e+00 1.914837600000000167e-02 1.056809389900000085e+01
1.026910410400000018e+01 0.000000000000000000e+00 0.000000000000000000e+00 -3.948753000000000159e-03 1.036963738500000076e+01 0.000000000000000000e+00 -1.792491787999999975e+00 1.898039899999999849e-02 1.047538615300000053e+01
1.038629060499999923e+01 0.000000000000000000e+00 0.000000000000000000e+00 -3.993815000000000386e-03 1.048797112799999987e+01 0.000000000000000000e+00 -1.812946916000000019e+00 1.919699500000000142e-02 1.059492665500000008e+01
1.047631464700000059e+01 0.000000000000000000e+00 0.000000000000000000e+00 -1.664018000000000094e-02 1.059642722599999942e+01 0.000000000000000000e+00 -1.798890907000000094e+00 2.486780499999999977e-02 1.070405138399999956e+01
1.034598249199999920e+01 0.000000000000000000e+00 0.000000000000000000e+00 -3.978314999999999629e-03 1.044726840300000070e+01 0.000000000000000000e+00 -1.805911057999999958e+00 1.912249300000000082e-02 1.055380884700000088e+01
1.040952501199999958e+01 0.000000000000000000e+00 0.000000000000000000e+00 -4.002748999999999890e-03 1.051143299700000000e+01 0.000000000000000000e+00 -1.817002526000000007e+00 1.923993900000000104e-02 1.061862778599999935e+01
1.032868679599999950e+01 0.000000000000000000e+00 0.000000000000000000e+00 -3.971665000000000091e-03 1.042980338399999951e+01 0.000000000000000000e+00 -1.802892061000000101e+00 1.909052500000000055e-02 1.053616572099999971e+01
1.046292021300000030e+01 0.000000000000000000e+00 0.000000000000000000e+00 -1.661890400000000031e-02 1.058287922200000075e+01 0.000000000000000000e+00 -1.796590944999999939e+00 2.483600999999999864e-02 1.069036577800000032e+01
1.037415245699999922e+01 0.000000000000000000e+00 0.000000000000000000e+00 -1.647790899999999892e-02 1.049309373000000001e+01 0.000000000000000000e+00 -1.781348608000000056e+00 2.462530099999999875e-02 1.059966836599999951e+01
1.026612369999999963e+01 0.000000000000000000e+00 0.000000000000000000e+00 -1.630631999999999915e-02 1.038382640700000081e+01 0.000000000000000000e+00 -1.762798960000000026e+00 2.436887100000000028e-02 1.048929125299999932e+01
1.026839359300000076e+01 0.000000000000000000e+00 0.000000000000000000e+00 -3.948479999999999872e-03 1.036891991899999965e+01 0.000000000000000000e+00 -1.792367767000000001e+00 1.897908499999999971e-02 1.047466136999999975e+01
1.037318236900000024e+01 0.000000000000000000e+00 0.000000000000000000e+00 -1.647636800000000165e-02 1.049211251999999917e+01 0.000000000000000000e+00 -1.781182033999999970e+00 2.462299800000000011e-02 1.059867719000000008e+01
1.033194689399999966e+01 0.000000000000000000e+00 0.000000000000000000e+00 -3.972917999999999762e-03 1.043309539800000074e+01 0.000000000000000000e+00 -1.803461116999999891e+00 1.909655099999999980e-02 1.053949130700000048e+01
1.036968283200000052e+01 0.000000000000000000e+00 0.000000000000000000e+00 -1.647080999999999892e-02 1.048857285999999966e+01 0.000000000000000000e+00 -1.780581127999999902e+00 2.461469100000000104e-02 1.059510157899999960e+01
1.035415724599999976e+01 0.000000000000000000e+00 0.000000000000000000e+00 -1.644614900000000018e-02 1.047286927100000042e+01 0.000000000000000000e+00 -1.777915225000000099e+00 2.457783800000000116e-02 1.057923849500000024e+01
1.022870915899999922e+01 0.000000000000000000e+00 0.000000000000000000e+00 -1.624689199999999889e-02 1.034598290199999937e+01 0.000000000000000000e+00 -1.756374499000000089e+00 2.428005999999999914e-02 1.045106338499999943e+01
1.044609204300000016e+01 0.000000000000000000e+00 0.000000000000000000e+00 -4.016809999999999999e-03 1.054835801399999973e+01 0.000000000000000000e+00 -1.823385371999999949e+00 1.930752599999999847e-02 1.065592936200000018e+01
1.029522610499999935e+01 0.000000000000000000e+00 0.000000000000000000e+00 -3.958798000000000351e-03 1.039601511699999925e+01 0.000000000000000000e+00 -1.797051433000000031e+00 1.902867999999999921e-02 1.050203288400000012e+01
1.043089777399999996e+01 0.000000000000000000e+00 0.000000000000000000e+00 -4.010968000000000172e-03 1.053301499500000027e+01 0.000000000000000000e+00 -1.820733182999999977e+00 1.927944200000000080e-02 1.064042987600000068e+01
1.051488741200000021e+01 0.000000000000000000e+00 0.000000000000000000e+00 -1.670144700000000121e-02 1.063544223299999913e+01 0.000000000000000000e+00 -1.805514247000000072e+00 2.495936600000000019e-02 1.074346265199999984e+01
1.050776484999999916e+01 0.000000000000000000e+00 0.000000000000000000e+00 -1.669013399999999883e-02 1.062823801100000054e+01 0.000000000000000000e+00 -1.804291230000000024e+00 2.494245900000000016e-02 1.073618525900000087e+01
1.030739856199999949e+01 0.000000000000000000e+00 0.000000000000000000e+00 -3.963478999999999787e-03 1.040830674200000061e+01 0.000000000000000000e+00 -1.799176158999999942e+00 1.905117799999999847e-02 1.051444985700000068e+01
1.031251110100000012e+01 0.000000000000000000e+00 0.000000000000000000e+00 -1.637999999999999873e-02 1.043074564700000018e+01 0.000000000000000000e+00 -1.770764154000000090e+00 2.447898199999999982e-02 1.053668703499999992e+01
1.044008772099999938e+01 0.000000000000000000e+00 0.000000000000000000e+00 -1.658263800000000024e-02 1.055978495299999942e+01 0.000000000000000000e+00 -1.792670371000000040e+00 2.478181299999999976e-02 1.066703694799999980e+01
1.044128284399999984e+01 0.000000000000000000e+00 0.000000000000000000e+00 -4.014961000000000051e-03 1.054350173399999946e+01 0.000000000000000000e+00 -1.822545917000000015e+00 1.929863700000000043e-02 1.065102355800000034e+01
1.036701739499999952e+01 0.000000000000000000e+00 0.000000000000000000e+00 -3.986403999999999816e-03 1.046850923500000086e+01 0.000000000000000000e+00 -1.809582739999999967e+00 1.916137199999999943e-02 1.057526629100000015e+01
1.045350842200000052e+01 0.000000000000000000e+00 0.000000000000000000e+00 -4.019662000000000235e-03 1.055584699899999990e+01 0.000000000000000000e+00 -1.824679914999999930e+00 1.932123300000000016e-02 1.066349471800000082e+01
1.035123679099999983e+01 0.000000000000000000e+00 0.000000000000000000e+00 -1.644151099999999893e-02 1.046991533299999944e+01 0.000000000000000000e+00 -1.777413753000000041e+00 2.457090600000000000e-02 1.057625455400000014e+01
1.026283128799999922e+01 0.000000000000000000e+00 0.000000000000000000e+00 -3.946340999999999911e-03 1.036330315900000087e+01 0.000000000000000000e+00 -1.791396855999999982e+00 1.896880399999999883e-02 1.046898733099999923e+01
1.042777978900000058e+01 0.000000000000000000e+00 0.000000000000000000e+00 -1.656308899999999959e-02 1.054733590800000087e+01 0.000000000000000000e+00 -1.790556972000000080e+00 2.475259700000000118e-02 1.065446146200000044e+01
1.030476008800000010e+01 0.000000000000000000e+00 0.000000000000000000e+00 -1.636768900000000124e-02 1.042290576799999968e+01 0.000000000000000000e+00 -1.769433224999999998e+00 2.446058300000000102e-02 1.052876752899999957e+01
1.047532296600000024e+01 0.000000000000000000e+00 0.000000000000000000e+00 -1.663860400000000128e-02 1.059542417499999978e+01 0.000000000000000000e+00 -1.798720625000000073e+00 2.486545100000000022e-02 1.070303814500000072e+01
1.041681508299999948e+01 0.000000000000000000e+00 0.000000000000000000e+00 -4.005551999999999897e-03 1.051879443700000039e+01 0.000000000000000000e+00 -1.818275021999999908e+00 1.925341300000000047e-02 1.062606429799999930e+01
1.056804712199999940e+01 0.000000000000000000e+00 0.000000000000000000e+00 -4.063704999999999921e-03 1.067150701899999987e+01 0.000000000000000000e+00 -1.844672864000000079e+00 1.953293500000000127e-02 1.078033423099999943e+01
1.049842130200000057e+01 0.000000000000000000e+00 0.000000000000000000e+00 -4.036932000000000020e-03 1.060119957100000043e+01 0.000000000000000000e+00 -1.832519543999999945e+00 1.940424599999999999e-02 1.070930979299999919e+01
1.044542434999999969e+01 0.000000000000000000e+00 0.000000000000000000e+00 -4.016552999999999964e-03 1.054768378500000026e+01 0.000000000000000000e+00 -1.823268824999999982e+00 1.930629099999999973e-02 1.065524825600000014e+01
1.042260667999999946e+01 0.000000000000000000e+00 0.000000000000000000e+00 -4.007779000000000376e-03 1.052464273300000031e+01 0.000000000000000000e+00 -1.819285956999999954e+00 1.926411800000000021e-02 1.063197223399999913e+01
1.032276502899999926e+01 0.000000000000000000e+00 0.000000000000000000e+00 -3.969387999999999909e-03 1.042382364400000050e+01 0.000000000000000000e+00 -1.801858404999999941e+00 1.907957999999999876e-02 1.053012499999999996e+01
1.044585273899999933e+01 0.000000000000000000e+00 0.000000000000000000e+00 -1.659179499999999946e-02 1.056561606800000064e+01 0.000000000000000000e+00 -1.793660283999999994e+00 2.479549699999999968e-02 1.067292728700000026e+01
1.032752473000000037e+01 0.000000000000000000e+00 0.000000000000000000e+00 -3.971218000000000317e-03 1.042862994100000051e+01 0.000000000000000000e+00 -1.802689219999999981e+00 1.908837700000000012e-02 1.053498031099999999e+01
1.025489235400000076e+01 0.000000000000000000e+00 0.000000000000000000e+00 -3.943288999999999996e-03 1.035528650300000031e+01 0.000000000000000000e+00 -1.790011100000000077e+00 1.895413099999999906e-02 1.046088892300000062e+01
1.042104563800000072e+01 0.000000000000000000e+00 0.000000000000000000e+00 -1.655239199999999911e-02 1.054052454900000058e+01 0.000000000000000000e+00 -1.789400649999999926e+00 2.473661200000000157e-02 1.064758092299999959e+01
1.042616098699999938e+01 0.000000000000000000e+00 0.000000000000000000e+00 -1.656051700000000029e-02 1.054569854600000056e+01 0.000000000000000000e+00 -1.790279007999999950e+00 2.474875400000000128e-02 1.065280747099999914e+01
1.047066579200000014e+01 0.000000000000000000e+00 0.000000000000000000e+00 -4.026258999999999914e-03 1.057317233799999912e+01 0.000000000000000000e+00 -1.827674766999999978e+00 1.935294499999999987e-02 1.068099673999999943e+01
1.036531757800000086e+01 0.000000000000000000e+00 0.000000000000000000e+00 -3.985749999999999710e-03 1.046679277700000021e+01 0.000000000000000000e+00 -1.809286034000000098e+00 1.915822999999999832e-02 1.057353232900000073e+01
1.034340889399999952e+01 0.000000000000000000e+00 0.000000000000000000e+00 -3.977325999999999778e-03 1.044466961000000005e+01 0.000000000000000000e+00 -1.805461830999999906e+00 1.911773599999999976e-02 1.055118355099999938e+01
1.022333963800000056e+01 0.000000000000000000e+00 0.000000000000000000e+00 -3.931155999999999887e-03 1.032342489000000008e+01 0.000000000000000000e+00 -1.784503512999999986e+00 1.889581200000000141e-02 1.042870238699999952e+01
1.036360582300000033e+01 0.000000000000000000e+00 0.000000000000000000e+00 -3.985091999999999975e-03 1.046506426500000053e+01 0.000000000000000000e+00 -1.808987244000000105e+00 1.915506599999999837e-02 1.057178618899999911e+01
1.048860698800000080e+01 0.000000000000000000e+00 0.000000000000000000e+00 -1.665970400000000087e-02 1.060886050000000047e+01 0.000000000000000000e+00 -1.801001628000000077e+00 2.489698400000000048e-02 1.071661093800000053e+01
1.030410245300000049e+01 0.000000000000000000e+00 0.000000000000000000e+00 -1.636664399999999964e-02 1.042224059299999972e+01 0.000000000000000000e+00 -1.769320302999999983e+00 2.445902200000000040e-02 1.052809559800000017e+01
1.061554992099999950e+01 0.000000000000000000e+00 0.000000000000000000e+00 -4.081971000000000210e-03 1.071947486500000046e+01 0.000000000000000000e+00 -1.852964569000000061e+00 1.962073500000000026e-02 1.082879124900000001e+01
1.046702952599999925e+01 0.000000000000000000e+00 0.000000000000000000e+00 -4.024861000000000237e-03 1.056950047299999973e+01 0.000000000000000000e+00 -1.827040049999999916e+00 1.934622399999999867e-02 1.067728742999999980e+01
1.030087101700000041e+01 0.000000000000000000e+00 0.000000000000000000e+00 -1.636151200000000167e-02 1.041897210700000009e+01 0.000000000000000000e+00 -1.768765431999999915e+00 2.445135099999999964e-02 1.052479391600000014e+01
1.039842639499999954e+01 0.000000000000000000e+00 0.000000000000000000e+00 -1.651646500000000101e-02 1.051764597200000040e+01 0.000000000000000000e+00 -1.785516692999999933e+00 2.468292000000000055e-02 1.062446997700000040e+01
1.042464500300000019e+01 0.000000000000000000e+00 0.000000000000000000e+00 -4.008562999999999710e-03 1.052670101100000011e+01 0.000000000000000000e+00 -1.819641749999999947e+00 1.926788499999999849e-02 1.063405150200000016e+01
