1.979227999999999987e+00 -1.292138999999999927e+00 -2.721283000000000118e+00 3.419875999999999916e+00 3.263079999999999870e-01 1.413858000000000059e+00 2.330702000000000051e+00 -2.065078000000000191e+00 -1.980242000000000058e+00 4.837640000000000273e-01 -2.536827999999999861e+00 -4.579599999999999782e-01 -2.530168000000000195e+00 3.466070000000000206e+00 1.672643000000000102e+00 7.760580000000000256e-01 -4.432525000000000048e+00 2.679406000000000176e+00 -7.277989999999999737e-01 2.502570000000000072e-01 9.227200000000000679e-02 2.666812999999999878e+00 1.005675000000000097e+00 -3.498896999999999924e+00 1.757856000000000085e+00 9.404510000000000369e-01 -4.104397999999999769e+00 -3.176909000000000205e+00 2.962857000000000074e+00 3.511308000000000096e+00 2.318354999999999944e+00 3.230255999999999794e+00 -3.165179999999999882e+00 9.540480000000000071e-01 1.861860000000000070e+00 -2.265240000000000031e-01 -1.567241000000000106e+00 -6.993209999999999704e-01 -7.852360000000000451e-01 -1.919551000000000007e+00 1.373820000000000041e+00 3.225020000000000109e-01 1.039684000000000053e+00 -9.365790000000000504e-01 1.459410000000000096e+00 -2.492834999999999912e+00 -1.657046000000000019e+00 -3.190348999999999879e+00 1.392140000000000044e-01 -1.107839000000000018e+00 -3.995139999999999803e-01 6.438299999999999912e+00 -7.586490000000000178e-01 3.602279999999999927e-01 -6.071640000000000370e-01 7.418339999999999934e-01 3.243856000000000073e+00 -1.317668000000000061e+00 -2.150266999999999928e+00 -4.250519999999999854e-01 -2.269029999999999936e-01 -1.874182999999999932e+00 1.280051000000000050e+00 -1.183292000000000010e+00 -1.761050000000000115e-01 -3.357780000000000209e-01 -1.384660000000000057e-01 -1.105429999999999913e+00 4.123369000000000284e+00 6.508899999999999408e-02 -5.102109999999999701e-01 -5.690209999999999990e-01 5.920769999999999644e-01 1.115213000000000010e+00 -8.524779999999999580e-01 3.220596000000000014e+00 1.710023999999999988e+00 6.666830000000000256e-01 6.460040000000000227e-01 -3.538890000000000091e-01 3.146078000000000152e+00 2.679460999999999871e+00 -9.476040000000000019e-01 2.787195000000000089e+00 -5.063839999999999453e-01 -5.128152000000000044e+00 6.103960000000000496e-01 -2.177440999999999960e+00 4.632549999999999724e-01 2.309658000000000211e+00 -4.391479999999999828e-01 1.195303999999999922e+00 2.332072000000000145e+00 2.438521999999999856e+00 2.601205999999999907e+00 1.312769999999999992e+00 1.433051000000000075e+00 3.576499999999999818e-02 9.281599999999999850e-01 2.433980000000000032e-01 6.696159999999999890e-01 -1.609839000000000020e+00 1.052286999999999972e+00 -1.769659000000000093e+00 3.690600000000000130e-02 -3.653188000000000102e+00 -2.991747999999999852e+00 5.131170000000000453e-01 -2.132385999999999893e+00 2.898743000000000070e+00 1.357863000000000042e+00 2.501490000000000102e-01 -1.069036000000000097e+00 -1.740750999999999937e+00 -1.926139000000000046e+00 -1.965173000000000059e+00 -6.321390000000000065e-01 -2.651958000000000037e+00 7.964879999999999738e-01 -1.843023999999999996e+00 1.462145999999999946e+00 -1.600100000000000133e-01 -3.899766000000000066e+00 -3.083199999999999830e-02 -3.290750000000000064e-01 2.073999999999999889e-03 9.548809999999999798e-01 5.015950000000000131e-01 -2.228700000000000125e-01 -6.821350000000000469e-01 3.454209999999999781e-01 2.776962999999999848e+00 -1.436515999999999904e+00 -3.962350000000000039e-01 3.996219999999999772e-01 -3.610399999999999721e-02 4.170079999999999898e-01 -1.464415000000000022e+00 -1.168870999999999993e+00 3.592160999999999937e+00 1.253131999999999913e+00 1.064103999999999939e+00 1.763260000000000105e-01 1.518899999999999972e-01 7.515479999999999938e-01 6.994310000000000249e-01 1.215894000000000030e+00 6.345199999999999452e-02 6.806630000000000180e-01 1.171456000000000053e+00 -1.430382999999999960e+00 1.726999999999999924e-01 -1.734159999999999924e+00 -1.824840000000000018e+00 -3.139839999999999853e-01 1.053272999999999904e+00 7.655520000000000103e-01 1.976249999999999951e-01 -7.703640000000000487e-01 1.102573999999999943e+00 1.122447999999999890e+00 1.546526999999999985e+00 3.159540000000000126e-01 6.204889999999999572e-01 -6.932030000000000136e-01 -9.514730000000000132e-01 3.816729999999999845e-01 -1.182109999999999994e+00 -2.297829999999999817e+00 -1.163175999999999988e+00 -1.598011999999999988e+00 8.783809999999999674e-01 3.561514999999999986e+00 -1.319320000000000048e+00 -7.787960000000000438e-01 -8.921970000000000178e-01 -7.382429999999999826e-01 -1.923259999999999970e+00 -1.485289000000000081e+00 6.727619999999999711e-01 1.391890000000000072e+00 -2.139536999999999800e+00 1.414285999999999932e+00 -1.232491000000000003e+00 -1.917267999999999972e+00 -1.373974000000000029e+00 9.959970000000000212e-01 5.772810000000000441e-01 1.076640000000000041e+00 7.191149999999999487e-01 -3.187579999999999858e-01 -1.088508999999999949e+00 -1.957945000000000046e+00 -9.474160000000000359e-01 -1.604970000000000008e+00 -2.787580000000000058e-01 -1.875383999999999940e+00 -1.195138000000000034e+00 -2.403049999999999908e-01 1.138571999999999917e+00 9.467750000000000332e-01 4.450459999999999972e-01 -2.323599999999999888e+00 6.339719999999999800e-01 1.987400000000000000e-01 -8.330109999999999459e-01 2.687087000000000003e+00 -1.208599999999999952e-01 1.846929999999999961e+00 2.174662999999999791e+00 3.619355999999999796e+00 2.882193000000000005e+00 -3.154460999999999959e+00 1.085048999999999930e+00 1.686155000000000070e+00 -4.340499999999999914e-02 -5.860341000000000022e+00 4.558124000000000287e+00 2.838744000000000156e+00 2.106999999999999932e-03 -6.557570000000000343e-01 6.013309999999999489e-01 -5.158709999999999685e-01 9.467330000000000467e-01 1.574827999999999895e+00 -5.074229999999999574e-01 -7.219820000000000126e-01 -1.136686000000000085e+00 1.785671999999999926e+00 -9.524329999999999741e-01 1.017625000000000002e+00 2.792586000000000013e+00 6.747659999999999769e-01 -1.087377999999999956e+00 1.249465999999999966e+00 -1.243468000000000018e+00 3.527799999999999825e-01 2.026810999999999918e+00 -3.890190000000000037e-01 6.245619999999999505e-01 -1.149955999999999978e+00 -7.113359999999999683e-01 3.185549999999999771e-01 -1.508672999999999931e+00 8.764699999999999713e-01 -6.602350000000000163e-01 -4.949759000000000242e+00 -2.050078000000000067e+00 7.587540000000000395e-01 1.219602000000000075e+00 3.585465999999999820e+00 2.906810000000000227e-01 -2.876989999999999825e-01 1.267222000000000071e+00 -8.512370000000000214e-01 1.093029000000000028e+00 -1.361170999999999909e+00 -1.115871000000000057e+00 -2.238499999999999934e-01 9.407469999999999999e-01 -3.611311000000000160e+00 2.057620000000000005e-01 -4.924299999999999788e-01 -9.938759999999999817e-01 -1.892790999999999890e+00 -1.034434000000000076e+00 -1.196600000000000025e-01 -8.105179999999999607e-01 -1.433200000000000029e+00 1.566689999999999916e+00 -1.107838000000000100e+00 -4.574659999999999838e-01 -2.584560000000000191e-01 1.236118999999999968e+00 -8.311290000000000067e-01 -2.556200000000000028e+00 -1.692868000000000039e+00 7.753050000000000219e-01 -1.950310000000000099e-01 1.924152000000000085e+00 1.086286000000000085e+00 -2.074841000000000157e+00
-1.048059999999999992e+00 -2.848415000000000141e+00 1.956379000000000090e+00 1.423599999999999866e-01 -5.808579999999999854e-01 -2.273683000000000121e+00 2.758993999999999946e+00 -3.049952999999999914e+00 2.831270000000000175e-01 8.000009999999999621e-01 -5.580749999999999877e-01 -7.893940000000000401e-01 6.411430000000000184e-01 1.015085999999999933e+00 2.262433999999999834e+00 3.860304000000000180e+00 -5.170649999999999968e-01 2.241430999999999951e+00 5.292189999999999950e-01 -1.097668000000000088e+00 -1.283080000000000054e-01 1.427391999999999994e+00 -2.998501000000000083e+00 1.264250000000000096e-01 -2.180449999999999999e+00 -4.122199999999999753e-01 5.329429999999999445e-01 -8.100009999999999710e-01 -1.159815000000000040e+00 -9.937500000000000222e-01 -2.318798999999999833e+00 8.884330000000000283e-01 3.341070999999999902e+00 -3.184175999999999895e+00 1.371756999999999893e+00 -3.046513000000000027e+00 3.035550000000000193e-01 1.254310999999999954e+00 -1.489792999999999923e+00 -1.364252000000000020e+00 2.038132000000000055e+00 -2.193331999999999837e+00 9.947970000000000423e-01 -1.977240000000000109e-01 1.071700000000000014e-01 -5.885970000000000368e-01 -6.262459999999999694e-01 -2.933968000000000131e+00 -2.702983999999999831e+00 2.711501000000000161e+00 -2.580970000000000208e-01 2.569640000000000257e-01 -2.599639999999999729e-01 -3.644219000000000097e+00 -1.580095000000000027e+00 5.261419999999999986e-01 1.816397000000000039e+00 1.862989999999999924e-01 1.376217999999999941e+00 -1.388262000000000107e+00 1.314335000000000031e+00 -1.147794999999999899e+00 1.146635999999999989e+00 3.180970000000000186e-01 4.459323999999999621e+00 -3.559089999999999754e-01 1.323239999999999972e+00 -1.491853000000000096e+00 2.352301000000000197e+00 6.488859999999999628e-01 -4.308879999999999932e-01 -3.765430000000000166e-01 -1.834270999999999985e+00 1.664495000000000058e+00 -1.481680000000000108e+00 -3.360606999999999900e+00 -5.109529999999999905e-01 1.815258000000000038e+00 3.493889999999999940e+00 9.176739999999999897e-01 4.751710000000000100e-01 3.041309999999999847e-01 8.744450000000000278e-01 1.000394000000000005e+00 1.240718999999999905e+00 -3.981799999999999784e-01 -5.448250000000000037e-01 3.548992000000000147e+00 -1.947440999999999978e+00 -1.746782000000000057e+00 -1.345300000000000107e-01 -1.010029999999999956e-01 -6.324399999999999467e-02 9.180070000000000174e-01 6.568110000000000337e-01 6.510070000000000023e-01 7.183840000000000225e-01 4.448309999999999764e-01 6.409610000000000030e-01 -2.087041999999999842e+00 -1.684812999999999894e+00 -3.043769999999999865e+00 1.236342999999999970e+00 2.015416000000000096e+00 -1.386131999999999920e+00 8.524040000000000505e-01 -1.505541000000000018e+00 -5.336400000000000171e-02 1.513263999999999943e+00 -1.069328999999999974e+00 -6.509049999999999558e-01 3.119295999999999847e+00 4.821289999999999742e-01 1.701521000000000061e+00 -2.289702999999999822e+00 -5.457429999999999781e-01 -9.303460000000000063e-01 -2.829247000000000067e+00 1.515071000000000057e+00 -1.001122999999999985e+00 1.331110999999999933e+00 6.660549999999999526e-01 -1.712931999999999899e+00 -1.474123999999999990e+00 -1.141566000000000081e+00 -6.425600000000000200e-01 -1.899188000000000098e+00 2.597046999999999883e+00 2.342554999999999943e+00 -2.587771000000000043e+00 5.235159999999999814e-01 8.967230000000000478e-01 6.265049999999999786e-01 -7.719129999999999603e-01 -2.433009000000000199e+00 1.068581999999999921e+00 6.059109999999999774e-01 7.757579999999999476e-01 1.928236000000000061e+00 -1.160174000000000039e+00 -1.288351000000000024e+00 3.087579999999999769e-01 9.112689999999999957e-01 8.418649999999999745e-01 1.386873999999999940e+00 -1.869169999999999998e-01 -1.075129999999999975e-01 8.961299999999999821e-01 1.391995000000000093e+00 6.116289999999999782e-01 3.529479999999999840e-01 5.382179999999999742e-01 -9.398000000000000104e-03 -1.897260000000000058e-01 -3.724561000000000011e+00 1.227062000000000097e+00 -2.834133000000000013e+00 -1.358538000000000023e+00 1.672674999999999912e+00 7.022990000000000066e-01 1.674390000000000045e-01 2.451689999999999980e-01 -7.238809999999999967e-01 1.267452999999999941e+00 4.042259999999999742e-01 -1.677580000000000071e+00 7.861019999999999675e-01 -1.376343000000000094e+00 1.596130000000000049e-01 -5.388939999999999841e-01 1.280151999999999957e+00 4.435600000000000098e-01 7.756859999999999866e-01 -3.730040000000000022e-01 -3.782249999999999779e-01 -4.805899999999999755e-02 -5.482970000000000343e-01 7.253359999999999808e-01 -2.285143000000000146e+00 1.197267000000000081e+00 -2.622897000000000034e+00 2.024652999999999814e+00 -3.704906999999999950e+00 -4.052589999999999804e-01 -3.104230000000000045e-01 -5.290660000000000363e-01 -1.922599999999999865e-01 -2.980630000000000224e-01 2.099247000000000085e+00 -2.160420000000000118e-01 -1.664813000000000098e+00 4.502199999999999952e-02 1.342640999999999973e+00 -2.678459999999999730e-01 1.591639999999999944e+00 -3.159200000000000202e-02 -1.641869999999999996e-01 1.220340999999999898e+00 -7.924470000000000125e-01 -7.421119999999999939e-01 -3.268139999999999934e-01 9.381310000000000482e-01 1.133362999999999898e+00 1.054961000000000038e+00 1.430369999999999975e-01 1.463280000000000136e-01 1.343570000000000042e-01 -6.550420000000000131e-01 1.089792000000000094e+00 5.339099999999999957e-01 8.126809999999999867e-01 4.088609999999999745e-01 -1.217114000000000029e+00 2.352393999999999874e+00 -4.512189999999999812e-01 2.683813999999999922e+00 4.272329999999999739e-01 -7.305080000000000462e-01 -9.860619999999999941e-01 -1.231610000000000066e-01 9.961910000000000487e-01 8.811109999999999776e-01 -1.087336000000000080e+00 -5.525299999999999656e-02 -8.730360000000000342e-01 -1.840086000000000110e+00 9.222139999999999782e-01 5.632540000000000324e-01 -5.392069999999999919e-01 2.474099999999999910e-02 -4.228990000000000249e-01 7.779470000000000551e-01 1.308621000000000034e+00 -1.208842999999999890e+00 3.867769999999999819e-01 -9.069620000000000459e-01 -1.463543999999999956e+00 9.850999999999999757e-01 2.310648000000000035e+00 2.765079000000000065e+00 1.191642000000000090e+00 -4.094999999999999682e-03 1.593879999999999963e+00 2.466863000000000028e+00 -2.729480000000000239e-01 2.323639999999999872e-01 -1.851177000000000072e+00 2.309819999999999929e-01 -2.177033000000000218e+00 -1.545606999999999953e+00 -8.455310000000000326e-01 1.081642999999999910e+00 -4.834689999999999821e-01 1.058581999999999912e+00 -3.930520000000000125e-01 -2.498190000000000133e-01 -7.895149999999999668e-01 9.093599999999999461e-01 4.543559999999999821e-01 -7.325909999999999922e-01 -8.774000000000000549e-03 -2.040959999999999996e-01 -7.324180000000000135e-01 9.457100000000000228e-02 -5.285300000000000553e-01 -8.345299999999999940e-02 -4.069499999999999784e-01 7.084479999999999666e-01 -9.136940000000000062e-01 -1.423632999999999926e+00 -1.503635999999999973e+00 -3.283745000000000136e+00 2.516685999999999979e+00 -1.372924000000000033e+00 2.108289000000000080e+00 -4.997249999999999748e-01 4.275999999999999940e-02 1.714857000000000076e+00 1.715667000000000053e+00 9.110479999999999690e-01 -3.154060000000000197e-01 -7.558110000000000106e-01
-2.373959000000000152e+00 3.244600999999999846e+00 1.606992999999999894e+00 4.732560000000000100e-01 -9.385599999999999499e-02 -2.839329999999999909e+00 -2.706424999999999859e+00 -2.817082000000000086e+00 -2.076497999999999955e+00 1.005856000000000083e+00 -1.538254999999999928e+00 2.699608000000000008e+00 2.870115000000000194e+00 1.946766999999999914e+00 2.912303000000000086e+00 -1.237100000000000088e+00 4.893872000000000000e+00 -2.768116000000000021e+00 1.194345999999999908e+00 2.825352999999999781e+00 1.082775000000000043e+00 3.119266000000000094e+00 1.124505000000000088e+00 1.444709999999999883e-01 -3.113655000000000062e+00 8.910249999999999559e-01 6.895210000000000505e-01 -2.052554999999999907e+00 1.516928999999999972e+00 -3.834589999999999943e-01 2.369367000000000001e+00 -3.444211000000000134e+00 -2.821730000000000071e-01 -2.765877000000000141e+00 2.112045999999999868e+00 -2.698745000000000172e+00 1.995999999999999996e-01 -1.652679999999999927e+00 1.141793000000000058e+00 -3.135580000000000034e-01 1.471559000000000061e+00 -3.299614000000000047e+00 -3.522269000000000094e+00 -7.502940000000000165e-01 3.693315000000000126e+00 -4.034619999999999873e-01 -6.825849999999999973e-01 -9.672220000000000262e-01 2.574800000000000005e-02 3.274058999999999831e+00 1.497976999999999892e+00 2.353613000000000177e+00 -1.165148999999999990e+00 -3.048417999999999850e+00 -3.384851999999999972e+00 1.385879999999999890e-01 8.578540000000000054e-01 1.140104000000000006e+00 -1.362325000000000008e+00 -2.203791999999999973e+00 4.012040000000000051e-01 1.058451999999999948e+00 2.930130000000000234e-01 -3.329549000000000092e+00 4.157409999999999606e+00 -4.175700000000000245e-02 -3.956479999999999997e-01 1.603202999999999934e+00 3.469726999999999784e+00 1.671650000000000080e-01 6.139499999999999957e-01 6.483569999999999611e-01 1.036720000000000003e-01 -1.852545000000000108e+00 -1.249289000000000094e+00 4.193800999999999668e+00 -2.180546000000000095e+00 2.076499999999999874e-02 -4.220919999999999561e+00 1.434806999999999944e+00 -2.481723999999999819e+00 4.285228000000000037e+00 -8.173152999999999224e+00 4.153430000000000177e+00 4.650084999999999802e+00 -1.677921999999999914e+00 -3.346696999999999811e+00 4.622386999999999802e+00 -3.697017999999999915e+00 -2.440571999999999964e+00 2.595453000000000010e+00 2.161356000000000055e+00 -2.447975000000000012e+00 1.555382000000000042e+00 -1.416835999999999984e+00 4.041719999999999757e+00 2.511185999999999918e+00 -4.030065999999999704e+00 -1.893315999999999999e+00 -2.005017000000000049e+00 7.699589999999999490e-01 1.786000000000000087e-02 1.098511000000000015e+00 -9.856909999999999838e-01 3.342660000000000076e-01 1.909615999999999980e+00 -1.404546000000000072e+00 5.724679999999999769e-01 -1.948703000000000074e+00 1.237592000000000025e+00 3.500559999999999783e-01 -3.353250000000000064e+00 3.543886000000000092e+00 4.042644000000000126e+00 1.158752999999999922e+00 -2.095640000000000003e-01 1.897359999999999880e-01 -3.702960000000000140e-01 1.246005000000000029e+00 -2.781562999999999786e+00 -4.126191999999999638e+00 -1.367420999999999998e+00 -4.889683999999999919e+00 -5.284560000000000368e-01 -3.116059999999999941e-01 -6.420029999999999903e-01 -5.356469999999999843e-01 -2.014960000000000084e-01 -3.107337999999999933e+00 -2.705730000000000079e-01 -2.551544999999999952e+00 1.105679000000000078e+00 -6.997050000000000214e-01 1.184817999999999927e+00 -1.041935000000000056e+00 7.318160000000000220e-01 -3.591099999999999848e-02 1.393969999999999931e+00 3.432478999999999836e+00 4.225079999999999947e-01 -8.265470000000000317e-01 1.127230000000000038e-01 -1.311113999999999891e+00 1.722909000000000024e+00 -1.713169999999999971e-01 -1.541927999999999965e+00 2.236190000000000122e-01 4.072842999999999769e+00 -4.269924999999999748e+00 1.555412000000000017e+00 -2.692385999999999946e+00 1.789001000000000063e+00 1.521190999999999960e+00 -2.202131000000000061e+00 4.871170000000000222e-01 7.939960000000000351e-01 1.686142000000000030e+00 3.042210000000000192e-01 1.985069999999999890e-01 -1.713554999999999939e+00 7.669839999999999991e-01 5.320479999999999654e-01 -2.345346000000000153e+00 -1.767428999999999917e+00 -2.328969999999999929e-01 2.797290000000000054e-01 -8.977730000000000432e-01 -3.190359999999999863e-01 1.083180000000000032e+00 2.793616000000000099e+00 1.896177999999999919e+00 -2.520261000000000084e+00 5.045520000000000005e-01 -1.434650000000000092e-01 9.717259999999999787e-01 1.157672999999999952e+00 1.380352000000000023e+00 -1.042691999999999952e+00 -1.131132999999999944e+00 1.355693999999999955e+00 7.271710000000000118e-01 5.740570000000000395e-01 -8.509200000000000097e-02 1.990000000000000102e-01 -9.842840000000000478e-01 2.025139999999999996e-01 -1.167977000000000043e+00 -3.619352000000000125e+00 8.874159999999999826e-01 -5.213259999999999561e-01 1.794732999999999912e+00 1.051539999999999975e-01 -7.540879999999999805e-01 1.415829000000000004e+00 5.101890000000000036e-01 7.708460000000000312e-01 9.027899999999999814e-01 -1.400520000000000098e-01 -1.078022000000000036e+00 -7.970390000000000530e-01 2.211202999999999808e+00 -7.954080000000000039e-01 -8.605540000000000411e-01 3.140416000000000096e+00 -6.683989999999999654e-01 -4.545150000000000023e-01 1.697378999999999971e+00 -2.461259999999999781e+00 3.806618999999999975e+00 -3.195626999999999995e+00 4.021600000000000175e-02 -1.719603999999999910e+00 -2.527711000000000041e+00 -1.293191999999999897e+00 1.772995000000000099e+00 -5.197359999999999758e-01 7.421569999999999556e-01 2.765299999999999980e-01 -1.403909000000000074e+00 2.471924000000000010e+00 1.898495000000000044e+00 2.836389999999999745e-01 -1.166469999999999896e+00 5.413820000000000299e-01 2.655469999999999775e-01 2.827754000000000101e+00 1.942912999999999890e+00 1.260432999999999915e+00 -1.445899999999999963e-01 -2.062546000000000213e+00 1.025438999999999989e+00 1.026159999999999989e-01 -6.382210000000000383e-01 2.382296000000000191e+00 2.164124999999999854e+00 3.541504999999999903e+00 -3.970066000000000095e+00 -2.403464000000000045e+00 -6.700519999999999810e-01 -1.116071000000000035e+00 1.202368000000000103e+00 -1.735524999999999984e+00 -1.175950999999999969e+00 9.438060000000000338e-01 -7.128039999999999932e-01 1.079390999999999989e+00 -2.759679999999999911e+00 1.937063999999999897e+00 9.041390000000000260e-01 1.836665999999999910e+00 -7.995929999999999982e-01 1.813382000000000049e+00 1.218807999999999891e+00 -5.648999999999999855e-02 -1.800502999999999965e+00 1.504829999999999890e+00 -2.500866999999999951e+00 1.752231000000000094e+00 -1.866069999999999951e-01 -7.145080000000000320e-01 1.882181000000000104e+00 -1.549307999999999907e+00 9.046509999999999829e-01 7.830120000000000413e-01 -6.826729999999999743e-01 1.332621000000000056e+00 3.399840000000000084e-01 1.977190000000000003e+00 -1.673585000000000100e+00 3.060600000000000126e-02 -2.153353000000000073e+00 1.858478999999999992e+00 -3.724830000000000085e-01 -4.393369999999999775e-01 -1.196252000000000093e+00 -2.762971999999999984e+00 5.376279999999999948e-01 6.401550000000000296e-01 -4.173627999999999894e+00 9.290519999999999889e-01 -9.983499999999999319e-02 1.000208999999999904e+00
9.578029999999999600e-01 -2.828829999999999956e+00 1.141953999999999914e+00 -1.239222000000000046e+00 -7.018379999999999619e-01 1.294945999999999930e+00 7.664700000000000679e-02 1.872199999999999906e-02 6.315229999999999455e-01 -2.158933999999999909e+00 1.338484999999999925e+00 -6.224429999999999685e-01 3.259819999999999940e-01 -1.119029000000000051e+00 2.775116000000000138e+00 -7.534990000000000299e-01 1.442863999999999924e+00 5.852779999999999649e-01 3.496827999999999825e+00 9.826230000000000242e-01 1.528764999999999930e+00 3.549411000000000094e+00 -2.483508000000000049e+00 1.912191999999999892e+00 -3.116289999999999893e-01 -1.034702999999999928e+00 4.872640999999999778e+00 -1.992583999999999911e+00 -3.650459999999999816e-01 -1.317149999999999987e-01 -3.111223999999999990e+00 2.047080999999999928e+00 -1.954563000000000050e+00 -2.510791000000000217e+00 9.042850000000000055e-01 -2.924882999999999900e+00 -1.673883999999999928e+00 1.734100000000000086e-01 9.048370000000000024e-01 -8.368679999999999453e-01 -4.055449999999999888e-01 -5.735869999999999580e-01 2.895894999999999886e+00 -1.800430000000000086e-01 4.830639999999999934e-01 7.597829999999999862e-01 -2.059121000000000201e+00 5.178537999999999641e+00 1.437611999999999890e+00 2.132130000000000136e-01 -1.219295000000000018e+00 6.022140000000000271e-01 -8.359590000000000076e-01 6.881400000000000017e-02 1.086367000000000083e+00 -2.186899999999999955e-02 1.086354000000000042e+00 -2.165432000000000023e+00 -1.229036999999999935e+00 -1.993646999999999947e+00 1.202182000000000084e+00 1.543992000000000031e+00 3.748609999999999998e-01 3.349893999999999927e+00 7.001209999999999933e-01 -3.028591000000000033e+00 6.707560000000000189e-01 -2.016074999999999839e+00 7.461609999999999632e-01 -3.366210000000000035e-01 -1.916319999999999968e-01 -2.753401000000000209e+00 -6.358939999999999593e-01 -1.422878000000000087e+00 -1.147200000000000025e-01 1.926363999999999965e+00 -1.426668999999999965e+00 -2.012672999999999934e+00 -7.731299999999999839e-01 4.790289999999999826e-01 -7.307489999999999819e-01 -9.692100000000000160e-01 4.077200000000000268e-02 -8.167440000000000255e-01 3.791786999999999797e+00 -3.554983000000000004e+00 1.506809999999999983e+00 9.854100000000000359e-02 2.961659999999999848e-01 -3.234388000000000041e+00 1.614119999999999999e-01 -3.970199999999999840e-01 -1.450104000000000060e+00 -2.031881999999999966e+00 3.763480000000000159e-01 -4.194959999999999800e-01 9.568159999999999998e-01 1.076573000000000002e+00 -1.112700000000000022e+00 1.025565000000000060e+00 -2.232800000000000062e-02 1.318767000000000023e+00 5.035889999999999533e-01 -4.620989999999999820e-01 5.517499999999999627e-01 1.540575000000000028e+00 -2.647911000000000126e+00 4.255169999999999786e-01 -1.396873000000000031e+00 2.004704999999999959e+00 2.388010000000000133e-01 2.860429999999999917e-01 -1.587258000000000058e+00 9.571990000000000220e-01 5.757489999999999553e-01 2.738986000000000143e+00 3.021369999999999889e-01 -9.948559999999999626e-01 1.435057000000000027e+00 5.214029999999999498e-01 7.481250000000000400e-01 3.962030000000000274e-01 8.848799999999999721e-02 -1.424533999999999967e+00 -3.694430000000000214e-01 2.637322000000000166e+00 -1.440460000000000074e-01 1.370579999999999909e+00 5.387380000000000502e-01 4.957650000000000112e-01 -5.766510000000000247e-01 6.924420000000000019e-01 5.576130000000000253e-01 -3.078310000000000213e-01 4.743700000000000139e-01 1.576832999999999929e+00 5.603320000000000523e-01 -3.051759000000000110e+00 -1.256207999999999991e+00 1.485457000000000027e+00 1.326197999999999988e+00 -2.569150000000000045e-01 9.349999999999999587e-04 3.468180000000000152e-01 -4.612370000000000081e-01 -4.212219999999999853e-01 -1.308002000000000109e+00 1.209578000000000042e+00 1.274551999999999907e+00 -4.498599999999999821e-01 -3.475251000000000090e+00 3.007079000000000057e+00 -1.769657000000000036e+00 -7.018969999999999931e-01 1.274879999999999902e-01 -1.947376999999999914e+00 -1.335188999999999959e+00 7.363269999999999538e-01 6.224830000000000085e-01 -6.576389999999999736e-01 9.239619999999999500e-01 4.916699999999999959e-01 -7.599179999999999824e-01 -3.708098999999999812e+00 -1.180816000000000088e+00 -1.509511999999999965e+00 -5.364659999999999984e-01 1.222447000000000061e+00 -3.360059000000000129e+00 8.500520000000000298e-01 -1.809758999999999896e+00 5.592890000000000361e-01 5.779480000000000173e-01 4.066009999999999902e-01 -9.843530000000000335e-01 4.384129999999999971e-01 1.076967999999999925e+00 -8.388830000000000453e-01 1.838626000000000094e+00 -7.418639999999999679e-01 -4.846489999999999965e-01 4.002060000000000062e-01 -8.407780000000000253e-01 -3.410250000000000226e-01 -6.105230000000000379e-01 -8.823689999999999589e-01 -5.532100000000000212e-02 -7.948739999999999695e-01 5.990499999999999992e-02 1.615890000000000104e-01 1.899623000000000062e+00 -4.423839999999999995e-01 1.615959999999999896e-01 -1.316437000000000079e+00 5.795280000000000431e-01 1.921920000000000073e+00 4.304499999999999993e-02 7.113599999999999923e-01 -4.250559999999999894e-01 8.108999999999999542e-01 1.754375000000000018e+00 8.376259999999999817e-01 1.363472999999999935e+00 4.945229999999999904e-01 -2.805710000000000148e-01 -8.119189999999999463e-01 -7.624760000000000426e-01 -5.870849999999999680e-01 1.370721000000000078e+00 2.573449999999999904e-01 2.129427000000000181e+00 -1.095245000000000024e+00 1.006212000000000106e+00 5.501700000000000479e-01 1.466989999999999961e-01 -2.024459999999999871e-01 -3.542429999999999746e-01 3.337129999999999819e-01 -2.859484999999999832e+00 -1.916859999999999953e-01 -2.853100000000000080e-01 -2.778120000000000034e-01 1.431656000000000040e+00 3.498669999999999836e-01 -4.222179999999999822e-01 -5.144260000000000499e-01 2.049159999999999870e-01 -1.280906000000000100e+00 3.522152000000000172e+00 2.096709999999999963e-01 1.519584999999999964e+00 3.595010000000000150e-01 1.103186999999999918e+00 -4.121110000000000051e-01 1.026626000000000039e+00 -2.599000000000000182e-03 -9.822159999999999780e-01 -3.189170000000000060e-01 -2.757580000000000031e-01 -7.402469999999999883e-01 -1.900058000000000025e+00 -4.144169999999999798e-01 1.110754000000000019e+00 -2.351996999999999893e+00 1.226895999999999987e+00 -2.336577000000000126e+00 -4.826500000000000234e-01 3.995029999999999970e-01 -1.434189999999999909e-01 2.381482999999999794e+00 8.738080000000000291e-01 2.082536000000000165e+00 1.473489999999999966e+00 -2.002589999999999926e-01 -1.272432999999999925e+00 3.496879999999999988e-01 -3.433439999999999825e-01 9.041130000000000555e-01 -9.323299999999999921e-01 6.554680000000000506e-01 1.798260000000000136e-01 -7.841259999999999897e-01 -5.702220000000000066e-01 1.570872999999999964e+00 -1.833650000000000002e+00 -5.998599999999999766e-02 -4.469629999999999992e-01 -8.732469999999999954e-01 -3.457520000000000038e-01 7.321819999999999995e-01 8.556770000000000209e-01 1.133447000000000093e+00 -6.318810000000000260e-01 3.609959999999999836e-01 -2.060080000000000133e+00 -2.788562999999999903e+00 -8.483709999999999862e-01 -9.208229999999999471e-01 2.356660000000000199e+00 6.689650000000000318e-01 -9.048910000000000009e-01 4.263250000000000095e-01