2.556839999999999780e+00 1.015253000000000050e+01 2.391249999999999876e+00 3.146729999999999805e+00 1.025993000000000066e+01 8.063230000000000786e+00 2.738230000000000164e+00 5.322350000000000136e+00 2.426579999999999959e+00 2.800159999999999982e+00 5.394800000000000040e+00 7.716330000000000133e+00 1.415299999999999891e-01 2.562600000000000211e+00 2.723160000000000025e+00 1.247400000000000037e-01 2.367919999999999803e+00 7.622659999999999769e+00 1.298999999999999981e-02 8.157460000000000377e+00 2.418719999999999981e+00 3.325899999999999967e-01 7.524020000000000152e+00 7.799120000000000275e+00 7.970780000000000420e+00 2.723640000000000061e+00 4.871679999999999566e+00 7.824119999999999742e+00 2.991109999999999935e+00 2.067400000000000071e-01 7.780190000000000161e+00 8.246130000000000848e+00 5.364449999999999719e+00 7.764129999999999754e+00 8.065530000000000754e+00 1.277200000000000002e-01 5.153870000000000395e+00 4.333299999999999930e-01 1.043439000000000050e+01 5.178499999999999659e+00 3.418300000000000227e-01 5.205059999999999576e+00 5.228139999999999787e+00 5.144759999999999778e+00 1.056629000000000040e+01 5.244320000000000093e+00 5.375829999999999664e+00 5.234110000000000262e+00 5.146659999999999791e+00 2.805089999999999861e+00 2.936510000000000176e+00 4.964179999999999815e+00 2.992420000000000080e+00 7.583820000000000228e+00 5.261219999999999786e+00 7.985629999999999562e+00 2.662360000000000060e+00 5.487440000000000317e+00 7.963759999999999728e+00 8.126870000000000260e+00 7.598110000000000142e+00 3.237900000000000222e-01 2.737490000000000201e+00 7.589500000000000135e+00 1.026942999999999984e+01 7.721899999999999764e+00 7.832569999999999588e+00 5.293280000000000207e+00 2.485869999999999802e+00 7.541380000000000194e+00 5.054170000000000051e+00 7.736550000000000260e+00 1.496699999999999975e-01 1.011862999999999957e+01 1.035558999999999941e+01 1.328799999999999981e-01 1.018712999999999980e+01 5.307890000000000441e+00 1.789800000000000002e-01 5.092209999999999681e+00 6.485000000000000486e-02 7.581999999999999851e-02 5.067000000000000171e+00 5.713169999999999860e+00 2.500760000000000094e+00 2.416040000000000187e+00 5.252430000000000376e+00 2.586850000000000094e+00 2.682949999999999946e+00 1.045068999999999981e+01 2.443360000000000198e+00 7.645830000000000126e+00 4.937359999999999971e+00 2.548589999999999911e+00 7.842629999999999768e+00 1.049759000000000064e+01 8.844359999999999999e+00 6.420770000000000088e+00 1.352510000000000101e+00 5.882710000000000328e+00 1.363390000000000102e+00 6.894529999999999603e+00 8.761820000000000164e+00 9.232519999999999172e+00 1.414069999999999938e+00 9.285379999999999967e+00 6.145920000000000272e+00 6.858690000000000175e+00 3.879469999999999974e+00 1.554550000000000098e+00 3.822540000000000049e+00 4.171820000000000306e+00 1.500059999999999949e+00 8.933170000000000499e+00 3.431750000000000078e+00 6.770240000000000258e+00 3.519849999999999923e+00 3.799789999999999779e+00 6.706769999999999676e+00 8.755010000000000403e+00 3.966720000000000024e+00 4.127329999999999721e+00 6.192149999999999821e+00 3.498720000000000052e+00 3.877709999999999990e+00 9.254189999999999472e+00 4.027400000000000091e+00 9.256339999999999790e+00 3.911249999999999893e+00 3.512189999999999923e+00 8.530709999999999127e+00 1.461799999999999988e+00 9.063359999999999417e+00 1.711279999999999912e+00 1.078060000000000018e+00 8.545849999999999724e+00 8.416029999999999234e+00 7.251149999999999984e+00 6.037930000000000241e+00 6.520400000000000418e+00 1.383769999999999945e+00 9.017730000000000246e+00 3.564639999999999809e+00 6.726309999999999789e+00 8.482760000000000744e+00 1.230169999999999986e+00 6.183110000000000106e+00 9.263230000000000075e+00 4.138919999999999710e+00 1.663380000000000081e+00 6.805970000000000297e+00 9.537620000000000431e+00 4.291619999999999990e+00 9.429159999999999542e+00 8.108660000000000423e+00 9.597039999999999793e+00 3.561819999999999986e+00 1.019609999999999905e+00 6.632599999999999607e-01 3.725849999999999884e+00 8.698499999999999233e+00 7.010069999999999801e+00 3.595699999999999896e+00 5.965080000000000382e+00 7.122199999999999642e-01 3.405479999999999841e+00 6.169979999999999798e+00 6.112630000000000230e+00 2.304580000000000073e+00 3.243799999999999795e+00 3.542460000000000164e+00 1.733190000000000008e+00 1.413899999999999935e+00 9.093909999999999272e+00 1.271200000000000108e+00 6.016239999999999810e+00 4.363990000000000258e+00 1.274599999999999955e+00 5.958319999999999617e+00 9.212220000000000297e+00 6.746970000000000134e+00 1.936180000000000012e+00 9.506370000000000431e+00 3.810639999999999805e+00 1.218830000000000080e+00 6.500569999999999737e+00 6.748599999999999710e+00 4.246780000000000221e+00 1.380409999999999915e+00 6.381029999999999980e+00 6.603279999999999816e+00 6.848650000000000126e+00 6.366159999999999819e+00 1.796769999999999978e+00 4.236150000000000304e+00 7.449370000000000047e+00 9.601240000000000663e+00 9.752620000000000289e+00 6.247069999999999901e+00 7.155759999999999899e+00 4.215220000000000411e+00 6.719590000000000174e+00 6.644770000000000287e+00 9.293229999999999436e+00 4.212489999999999846e+00 3.516779999999999795e+00 1.001489999999999991e+00 6.484519999999999840e+00 3.944490000000000052e+00 6.048930000000000362e+00 6.503730000000000011e+00 9.204779999999999518e+00 1.651780000000000026e+00 6.057120000000000282e+00 9.073050000000000281e+00 6.569250000000000256e+00 9.318459999999999965e+00 8.578469999999999374e+00 4.111250000000000071e+00 9.506830000000000780e+00 7.790500000000000203e-01 8.813829999999999387e+00 8.363609999999999545e+00 5.826039999999999885e+00 4.311079999999999579e+00 8.390060000000000073e+00 4.594859999999999722e+00 9.681520000000000792e+00 1.005410999999999966e+01 3.244369999999999976e+00 4.431949999999999612e+00 6.134590000000000209e+00 4.059400000000000119e+00 8.775840000000000529e+00 6.142850000000000144e+00 1.369410000000000016e+00 1.550210000000000088e+00 4.159200000000000230e+00 9.071529999999999205e+00 9.557819999999999538e+00 1.200639999999999930e+00 9.657200000000000228e-01 1.448720000000000008e+00 1.072449999999999903e+00 1.072829999999999950e+00 3.791669999999999874e+00 1.007600000000000051e+00 6.384430000000000049e+00 1.624030000000000085e+00 1.453580000000000094e+00 3.451490000000000169e+00 6.458199999999999719e+00 1.346179999999999932e+00 1.086419999999999941e+00 6.510600000000000165e+00 4.911719999999999864e+00 4.766399999999999970e+00 3.479509999999999881e+00 1.490550000000000042e+00 8.928539999999999921e+00 3.569449999999999790e+00 1.524639999999999995e+00 9.027359999999999829e+00 9.068059999999999121e+00 1.688399999999999901e+00 4.208789999999999587e+00 9.617299999999999738e-01 -4.112999999999999989e-02 3.236790000000000056e+00 9.861140000000000683e+00 1.177740000000000009e+00 8.974890000000000256e+00 8.894900000000000029e-01 1.073209999999999997e+00 8.827139999999999986e+00 6.352280000000000371e+00
2.791510000000000158e+00 1.032837999999999923e+01 2.852030000000000065e+00 2.543960000000000221e+00 6.460200000000000387e-01 7.931189999999999962e+00 2.531130000000000102e+00 5.094759999999999955e+00 2.445739999999999803e+00 2.227780000000000094e+00 5.665180000000000327e+00 8.177139999999999631e+00 9.378999999999999837e-02 2.413089999999999957e+00 2.483789999999999942e+00 -5.446999999999999759e-02 2.560810000000000031e+00 7.913700000000000401e+00 1.017975000000000030e+01 7.658380000000000187e+00 2.643860000000000099e+00 1.490599999999999981e-01 8.263579999999999259e+00 7.756529999999999703e+00 7.470589999999999620e+00 2.536500000000000199e+00 4.919699999999999740e+00 7.679929999999999701e+00 2.259869999999999823e+00 1.054930000000000057e+01 7.568690000000000140e+00 7.802270000000000039e+00 5.741189999999999571e+00 7.446830000000000283e+00 8.134999999999999787e+00 4.614199999999999968e-01 5.435209999999999653e+00 1.616900000000000004e-01 1.068989999999999974e+01 5.302480000000000082e+00 3.029600000000000071e-01 5.617820000000000036e+00 5.553630000000000067e+00 5.511849999999999916e+00 3.081000000000000058e-02 4.802159999999999762e+00 5.575300000000000367e+00 5.614580000000000126e+00 5.001140000000000363e+00 2.926429999999999865e+00 1.999030000000000085e+00 5.374319999999999986e+00 2.752200000000000202e+00 7.839089999999999669e+00 4.939169999999999838e+00 7.697720000000000340e+00 2.854060000000000041e+00 5.305369999999999919e+00 8.461370000000000502e+00 8.354459999999999553e+00 8.001129999999999853e+00 1.032347999999999999e+01 2.362340000000000106e+00 7.962209999999999788e+00 1.016488000000000014e+01 7.731080000000000396e+00 7.849459999999999660e+00 4.375869999999999926e+00 2.379770000000000163e+00 7.981510000000000105e+00 5.515859999999999985e+00 8.329560000000000741e+00 4.398299999999999987e-01 1.005441000000000074e+01 1.766699999999999937e-01 1.022794999999999987e+01 1.022338000000000058e+01 5.078750000000000320e+00 1.776600000000000124e-01 4.889820000000000277e+00 6.479000000000000037e-02 1.019575000000000031e+01 5.115149999999999864e+00 4.993159999999999599e+00 3.115470000000000184e+00 2.688860000000000028e+00 5.282879999999999576e+00 2.727009999999999934e+00 2.936609999999999943e+00 1.036500000000000021e+01 2.218859999999999832e+00 7.721940000000000026e+00 5.227759999999999962e+00 2.800759999999999916e+00 8.000550000000000495e+00 1.079870000000000019e+01 8.856019999999999115e+00 3.159710000000000019e+00 1.231789999999999941e+00 9.422409999999999286e+00 3.938909999999999911e+00 6.704010000000000247e+00 9.300290000000000390e+00 8.840059999999999363e+00 1.059160000000000101e+00 9.558759999999999479e+00 8.795999999999999375e+00 6.375449999999999839e+00 4.107520000000000060e+00 1.187100000000000044e+00 4.480940000000000367e+00 6.071299999999999919e+00 1.780810000000000004e+00 9.473929999999999296e+00 3.544109999999999872e+00 6.943100000000000271e+00 6.299839999999999662e+00 5.527199999999999669e+00 7.983900000000000219e+00 1.964899999999999980e-01 4.383600000000000385e+00 3.464430000000000121e+00 4.032090000000000174e+00 4.144969999999999821e+00 4.439020000000000188e+00 1.009460000000000024e+00 4.031460000000000043e+00 9.417299999999999116e+00 1.476679999999999993e+00 3.640019999999999811e+00 9.950450000000000017e+00 9.587070000000000647e+00 8.637529999999999930e+00 2.968000000000000083e-01 2.918100000000000138e-01 9.158939999999999415e+00 1.094359999999999999e+00 5.856930000000000192e+00 9.838309999999999889e+00 5.977470000000000283e+00 1.506450000000000067e+00 9.224399999999999267e+00 6.578509999999999636e+00 7.256029999999999980e+00 9.694889999999999119e+00 3.657239999999999824e+00 3.741229999999999833e+00 1.395929999999999893e+00 4.187420000000000364e+00 8.902760000000000673e+00 8.703590000000000160e+00 8.892070000000000363e+00 3.938429999999999875e+00 8.917249999999999233e+00 9.101319999999999411e+00 9.203369999999999607e+00 3.537889999999999979e+00 1.705440000000000067e+00 9.423399999999999554e-01 3.955080000000000151e+00 4.018589999999999662e+00 6.687520000000000131e+00 3.850550000000000139e+00 5.954270000000000174e+00 3.838299999999999823e+00 3.533780000000000143e+00 7.244710000000000427e+00 8.963549999999999685e+00 1.808040000000000092e+00 1.532669999999999977e+00 3.817000000000000171e+00 3.692889999999999784e+00 1.740580000000000016e+00 9.066090000000000870e+00 1.322959999999999914e+00 6.496480000000000032e+00 3.775920000000000165e+00 9.228800000000000336e-01 6.439180000000000348e+00 9.547119999999999607e+00 6.529609999999999914e+00 1.554110000000000102e+00 1.178609999999999935e+00 6.620770000000000266e+00 1.570089999999999986e+00 7.139809999999999768e+00 6.852940000000000254e+00 6.637340000000000018e+00 1.722690000000000055e+00 6.032479999999999620e+00 6.603419999999999845e+00 6.912090000000000067e+00 6.881639999999999979e+00 9.316299999999999581e-01 4.217080000000000162e+00 8.801940000000000097e+00 1.568480000000000096e+00 8.899810000000000443e+00 6.271829999999999572e+00 8.150940000000000296e+00 4.311420000000000030e+00 7.466459999999999653e+00 6.648520000000000429e+00 1.015039999999999942e+01 6.526659999999999684e+00 4.271099999999999675e+00 9.543899999999999606e-01 6.623039999999999594e+00 4.282300000000000217e+00 6.040740000000000443e+00 6.220769999999999911e+00 9.628199999999999648e+00 1.801109999999999989e+00 6.460659999999999847e+00 9.385189999999999699e+00 6.851569999999999716e+00 9.842800000000000438e+00 6.651099999999999790e-01 2.995639999999999858e+00 1.575139999999999985e+00 1.464010000000000034e+00 9.579520000000000479e+00 8.798629999999999285e+00 6.497289999999999566e+00 4.865850000000000009e+00 9.082969999999999544e+00 4.594689999999999941e+00 9.757400000000000517e+00 6.499920000000000364e+00 3.246739999999999959e+00 3.173649999999999860e+00 6.236640000000000406e+00 4.431009999999999671e+00 8.493489999999999540e+00 3.697849999999999859e+00 8.879469999999999530e+00 3.965969999999999995e+00 6.566740000000000244e+00 9.578590000000000160e+00 9.525330000000000297e+00 1.336870000000000003e+00 7.194800000000000084e-01 1.425329999999999986e+00 4.125169999999999781e+00 9.549400000000000333e+00 6.633180000000000298e+00 3.617840000000000167e+00 6.870709999999999873e+00 1.562580000000000080e+00 1.320160000000000000e+00 6.275470000000000326e+00 6.300340000000000273e+00 1.214920000000000000e+00 3.712089999999999890e+00 5.216840000000000366e+00 3.750080000000000080e+00 4.400929999999999787e+00 9.146089999999999165e+00 8.983799999999999564e-01 9.073420000000000485e+00 3.876729999999999787e+00 1.086670000000000025e+00 9.595370000000000843e+00 9.217879999999999185e+00 1.599730000000000096e+00 3.630360000000000031e+00 1.076789999999999914e+00 9.424700000000000299e-01 1.147299999999999986e+00 6.820739999999999803e+00 1.386740000000000084e+00 8.342840000000000700e+00 1.189040000000000097e+00 1.476359999999999895e+00 9.116870000000000474e+00 6.639969999999999928e+00
2.382099999999999884e+00 1.842499999999999971e-01 2.370210000000000150e+00 2.869180000000000064e+00 2.998600000000000154e-01 8.037860000000000227e+00 2.634440000000000115e+00 5.098530000000000229e+00 2.639200000000000212e+00 2.678850000000000176e+00 5.232549999999999812e+00 7.805839999999999890e+00 1.010222000000000087e+01 2.810179999999999900e+00 2.683769999999999989e+00 1.000043999999999933e+01 2.361279999999999824e+00 7.414609999999999701e+00 2.217699999999999949e-01 7.720279999999999809e+00 2.474079999999999835e+00 9.907890000000000086e+00 7.655730000000000146e+00 8.316779999999999617e+00 7.507390000000000008e+00 2.504960000000000075e+00 5.098959999999999937e+00 7.712349999999999817e+00 2.546870000000000189e+00 3.182999999999999718e-02 7.946539999999999715e+00 7.806980000000000253e+00 5.304490000000000371e+00 7.423359999999999737e+00 7.748109999999999609e+00 1.052110000000000056e+01 5.013959999999999972e+00 1.015873999999999988e+01 1.053899999999999970e+01 5.399009999999999643e+00 1.007629000000000019e+01 5.407580000000000275e+00 4.850929999999999964e+00 4.997309999999999697e+00 1.043449999999999989e+01 5.425659999999999705e+00 5.193710000000000271e+00 5.112569999999999837e+00 4.953299999999999592e+00 2.633599999999999941e+00 2.605430000000000135e+00 5.393209999999999837e+00 2.685810000000000031e+00 8.047620000000000218e+00 5.236049999999999649e+00 8.032870000000000843e+00 2.681830000000000158e+00 5.463020000000000209e+00 7.534320000000000128e+00 7.732000000000000206e+00 7.758049999999999891e+00 1.014769000000000077e+01 2.347430000000000128e+00 7.464570000000000149e+00 3.974099999999999855e-01 7.928670000000000329e+00 7.604260000000000019e+00 5.326430000000000220e+00 2.490689999999999849e+00 7.997679999999999900e+00 5.028509999999999813e+00 7.823229999999999684e+00 9.922810000000000130e+00 9.884290000000000020e+00 1.034379999999999988e+01 3.917000000000000343e-02 6.832000000000000572e-02 5.344599999999999795e+00 -2.432000000000000134e-02 5.065820000000000434e+00 1.051239999999999952e+01 2.490600000000000036e-01 4.971210000000000129e+00 5.303469999999999906e+00 2.448129999999999917e+00 2.445969999999999978e+00 5.043249999999999567e+00 2.350630000000000219e+00 2.576350000000000140e+00 1.039170000000000016e+01 2.592150000000000176e+00 7.508469999999999978e+00 5.093759999999999621e+00 2.257960000000000189e+00 7.555830000000000268e+00 1.046770000000000067e+01 8.797739999999999227e+00 3.829649999999999999e+00 1.356919999999999904e+00 8.802929999999999922e+00 3.521069999999999922e+00 6.179780000000000051e+00 9.027889999999999304e+00 8.742770000000000152e+00 1.225659999999999972e+00 9.485939999999999372e+00 8.664179999999999993e+00 6.461420000000000385e+00 3.599040000000000017e+00 1.455379999999999896e+00 3.809670000000000112e+00 4.041059999999999874e+00 1.648449999999999971e+00 9.303150000000000475e+00 3.884640000000000093e+00 6.848349999999999937e+00 3.942419999999999813e+00 3.882200000000000095e+00 6.759450000000000180e+00 9.355389999999999873e+00 3.979260000000000019e+00 3.892700000000000049e+00 4.226849999999999774e+00 4.409849999999999604e+00 4.426090000000000302e+00 8.450720000000000454e+00 3.928859999999999797e+00 9.062060000000000670e+00 1.811730000000000063e+00 3.356580000000000119e+00 9.171730000000000160e+00 9.421889999999999432e+00 8.935370000000000701e+00 1.272059999999999969e+00 1.366570000000000062e+00 8.780409999999999826e+00 1.057989999999999986e+00 6.626570000000000071e+00 8.981360000000000454e+00 6.165700000000000180e+00 1.047630000000000061e+00 9.351770000000000138e+00 6.020909999999999762e+00 6.728600000000000136e+00 9.134900000000000020e+00 4.115179999999999616e+00 3.906660000000000021e+00 9.308260000000000645e+00 3.983639999999999848e+00 8.839370000000000616e+00 9.087849999999999540e+00 9.369339999999999336e+00 3.907960000000000100e+00 8.582520000000000593e+00 8.971550000000000580e+00 8.995559999999999334e+00 3.762350000000000083e+00 1.435070000000000068e+00 1.260939999999999950e+00 3.814049999999999940e+00 2.042300000000000004e+00 6.949770000000000003e+00 4.258810000000000429e+00 5.325829999999999842e+00 1.593040000000000012e+00 4.000770000000000159e+00 6.420139999999999958e+00 6.470519999999999605e+00 8.704100000000000170e-01 1.408390000000000031e+00 4.031150000000000233e+00 1.344200000000000061e+00 1.316510000000000069e+00 8.888260000000000716e+00 1.391210000000000058e+00 6.233130000000000059e+00 4.132530000000000037e+00 1.070070000000000077e+00 6.239760000000000417e+00 9.214159999999999684e+00 6.224680000000000213e+00 1.183289999999999953e+00 1.977999999999999980e+00 6.312129999999999797e+00 1.299360000000000070e+00 6.848250000000000171e+00 6.565900000000000070e+00 6.688990000000000435e+00 1.292399999999999993e+00 6.659919999999999618e+00 6.554570000000000007e+00 6.577709999999999724e+00 5.716960000000000264e+00 1.969780000000000086e+00 4.659019999999999939e+00 6.548969999999999736e+00 1.074049999999999949e+00 9.461719999999999686e+00 6.501330000000000275e+00 6.709900000000000198e+00 4.097430000000000128e+00 6.360009999999999941e+00 6.365999999999999659e+00 9.334899999999999309e+00 6.155249999999999666e+00 3.411230000000000206e+00 7.273800000000000265e-01 6.529440000000000133e+00 3.871140000000000025e+00 6.222739999999999938e+00 6.467900000000000205e+00 9.148839999999999861e+00 9.597400000000000375e-01 6.834380000000000344e+00 8.971970000000000667e+00 6.547640000000000349e+00 8.433809999999999363e+00 1.890810000000000102e+00 3.475540000000000074e+00 8.935290000000000177e+00 1.762399999999999967e+00 9.342079999999999274e+00 8.990199999999999747e+00 6.490109999999999602e+00 3.654920000000000169e+00 8.790829999999999700e+00 6.187240000000000073e+00 9.277300000000000324e+00 6.515189999999999593e+00 3.862800000000000011e+00 3.576319999999999943e+00 6.821609999999999729e+00 3.671930000000000138e+00 9.167659999999999698e+00 6.613900000000000112e+00 9.174429999999999197e+00 4.055729999999999613e+00 5.930579999999999963e+00 9.155900000000000816e+00 8.970190000000000552e+00 1.220879999999999965e+00 1.511870000000000047e+00 1.151690000000000103e+00 1.360090000000000021e+00 9.953300000000000480e-01 6.348040000000000127e+00 1.671149999999999913e+00 6.691600000000000215e+00 1.619220000000000104e+00 1.577050000000000063e+00 6.602380000000000138e+00 6.702189999999999870e+00 1.309590000000000032e+00 3.701420000000000154e+00 3.955179999999999918e+00 1.959969999999999990e+00 4.309199999999999697e+00 9.278090000000000614e+00 1.677699999999999969e+00 8.981339999999999435e+00 3.897629999999999928e+00 1.092449999999999921e+00 8.899969999999999715e+00 9.422019999999999840e+00 1.259549999999999947e+00 3.887129999999999974e+00 1.048780000000000046e+00 1.250280000000000058e+00 3.858249999999999957e+00 6.502480000000000260e+00 1.284229999999999983e+00 9.137140000000000484e+00 1.104600000000000026e+00 3.804549999999999876e+00 9.156750000000000611e+00 6.515200000000000102e+00
2.592470000000000052e+00 3.126800000000000135e-01 2.376520000000000188e+00 2.466930000000000067e+00 1.026459000000000010e+01 7.926490000000000258e+00 2.734150000000000080e+00 5.162160000000000082e+00 2.493739999999999846e+00 2.851550000000000029e+00 5.202460000000000306e+00 7.786059999999999981e+00 2.023800000000000043e-01 2.368689999999999962e+00 2.612109999999999932e+00 1.010352999999999923e+01 2.808730000000000171e+00 7.898060000000000080e+00 2.731100000000000194e-01 7.750630000000000130e+00 2.373569999999999958e+00 2.035899999999999932e-01 7.480929999999999858e+00 8.022069999999999368e+00 7.780319999999999681e+00 2.385749999999999815e+00 5.193649999999999878e+00 7.416070000000000384e+00 2.743500000000000050e+00 1.012143000000000015e+01 7.804330000000000211e+00 7.585329999999999906e+00 5.296369999999999578e+00 7.538759999999999906e+00 8.010910000000000863e+00 1.064963000000000015e+01 4.900290000000000035e+00 2.364799999999999958e-01 6.769000000000000017e-02 5.154589999999999783e+00 1.020828999999999986e+01 5.141370000000000218e+00 5.196950000000000180e+00 5.389949999999999797e+00 1.237400000000000028e-01 5.441410000000000302e+00 5.363920000000000243e+00 5.352459999999999773e+00 5.399969999999999715e+00 2.495029999999999859e+00 2.672759999999999803e+00 4.903550000000000075e+00 2.551130000000000120e+00 7.527319999999999567e+00 5.458280000000000243e+00 7.773150000000000226e+00 2.896110000000000184e+00 5.227590000000000181e+00 8.029930000000000234e+00 8.323589999999999378e+00 8.036329999999999529e+00 1.007748999999999917e+01 2.574850000000000083e+00 7.740850000000000009e+00 1.024619000000000035e+01 7.933110000000000106e+00 7.967839999999999812e+00 4.991570000000000285e+00 2.832149999999999945e+00 7.442569999999999908e+00 5.225799999999999557e+00 8.077289999999999637e+00 3.083999999999999936e-02 1.014699000000000062e+01 1.040382999999999925e+01 2.989999999999999949e-02 1.023798999999999992e+01 5.568590000000000373e+00 -2.518000000000000099e-02 4.981950000000000323e+00 2.481999999999999831e-02 1.708099999999999896e-01 5.095559999999999867e+00 5.377860000000000085e+00 2.613560000000000105e+00 2.724629999999999885e+00 4.947000000000000064e+00 2.634170000000000122e+00 2.879030000000000200e+00 1.051102999999999987e+01 2.531690000000000218e+00 7.957460000000000200e+00 5.028789999999999871e+00 2.458889999999999798e+00 7.612639999999999851e+00 1.042023000000000010e+01 8.705679999999999197e+00 3.822369999999999823e+00 7.051899999999999835e-01 9.009940000000000282e+00 3.883350000000000080e+00 6.303469999999999906e+00 9.015140000000000597e+00 9.077270000000000394e+00 1.110409999999999897e+00 8.733589999999999520e+00 9.053119999999999834e+00 6.302620000000000111e+00 3.991350000000000176e+00 1.162220000000000031e+00 3.835770000000000124e+00 3.766399999999999970e+00 1.549250000000000016e+00 9.546689999999999898e+00 3.976970000000000116e+00 6.493809999999999860e+00 4.418929999999999580e+00 3.968210000000000015e+00 6.452600000000000335e+00 9.418649999999999523e+00 3.866750000000000131e+00 3.831360000000000099e+00 3.734109999999999818e+00 3.797239999999999949e+00 3.905749999999999833e+00 8.885820000000000718e+00 3.941520000000000135e+00 9.046580000000000510e+00 3.744470000000000187e+00 3.716000000000000192e+00 9.029949999999999477e+00 9.195570000000000022e+00 9.070029999999999148e+00 9.782699999999999729e-01 1.413399999999999990e+00 9.232239999999999114e+00 1.223980000000000068e+00 6.804420000000000357e+00 9.131489999999999441e+00 6.187599999999999767e+00 1.946029999999999927e+00 9.055680000000000618e+00 6.444759999999999600e+00 7.136930000000000440e+00 8.712469999999999715e+00 3.359259999999999913e+00 3.508649999999999824e+00 8.598200000000000287e+00 3.537819999999999965e+00 8.677479999999999194e+00 8.863039999999999807e+00 8.525869999999999393e+00 3.532979999999999787e+00 8.785479999999999734e+00 8.928029999999999688e+00 9.097450000000000259e+00 3.634910000000000085e+00 4.074489999999999945e+00 8.488799999999999679e-01 3.650469999999999882e+00 9.207919999999999661e+00 6.444819999999999993e+00 3.927700000000000191e+00 6.453579999999999650e+00 1.758650000000000047e+00 4.007600000000000051e+00 6.548890000000000100e+00 6.875810000000000421e+00 1.412900000000000045e+00 1.386509999999999909e+00 3.631390000000000118e+00 1.123950000000000005e+00 1.154719999999999969e+00 8.839980000000000615e+00 1.577199999999999935e+00 6.799920000000000186e+00 3.411160000000000192e+00 1.635180000000000078e+00 6.582160000000000011e+00 9.072380000000000777e+00 6.346359999999999779e+00 1.601969999999999894e+00 7.831000000000000183e-01 6.623960000000000292e+00 1.234459999999999891e+00 6.294830000000000148e+00 6.309840000000000337e+00 6.957580000000000098e+00 1.093360000000000110e+00 6.581629999999999647e+00 6.491699999999999804e+00 6.547589999999999577e+00 6.560260000000000424e+00 9.764300000000000201e-01 3.735250000000000181e+00 6.464100000000000179e+00 1.500899999999999901e+00 8.774660000000000792e+00 6.415740000000000443e+00 6.412679999999999936e+00 3.927020000000000177e+00 6.444329999999999892e+00 6.840469999999999828e+00 9.233069999999999666e+00 6.348830000000000418e+00 4.219350000000000378e+00 1.650360000000000049e+00 6.278480000000000061e+00 3.910940000000000083e+00 7.023220000000000240e+00 4.020120000000000360e+00 9.134790000000000632e+00 1.181999999999999940e+00 6.232680000000000220e+00 9.111789999999999168e+00 6.899399999999999977e+00 9.101050000000000750e+00 1.116030000000000078e+00 4.135989999999999611e+00 8.944539999999999935e+00 1.207759999999999945e+00 9.422890000000000654e+00 9.025719999999999743e+00 6.164520000000000444e+00 4.439259999999999984e+00 9.211959999999999482e+00 6.592030000000000278e+00 9.916790000000000660e+00 6.588070000000000093e+00 3.914390000000000036e+00 4.685959999999999681e+00 6.488830000000000098e+00 4.513130000000000308e+00 9.659940000000000637e+00 6.424890000000000434e+00 8.887779999999999347e+00 4.231810000000000294e+00 6.186989999999999768e+00 9.428229999999999222e+00 9.568350000000000577e+00 1.385760000000000103e+00 1.360910000000000064e+00 1.050869999999999971e+00 1.938749999999999973e+00 1.286650000000000071e+00 6.164419999999999789e+00 1.350470000000000059e+00 6.340770000000000017e+00 1.014240000000000030e+00 1.173680000000000057e+00 6.505200000000000315e+00 6.241520000000000401e+00 1.329090000000000105e+00 3.938320000000000043e+00 3.922800000000000065e+00 9.874399999999999844e-01 3.742440000000000211e+00 9.462320000000000064e+00 1.230939999999999923e+00 9.330759999999999721e+00 4.120800000000000018e+00 1.299260000000000081e+00 8.924039999999999750e+00 9.333700000000000330e+00 1.158619999999999983e+00 3.857670000000000154e+00 1.270780000000000021e+00 1.278699999999999948e+00 4.261050000000000004e+00 6.940669999999999895e+00 1.321239999999999970e+00 8.855470000000000397e+00 1.378940000000000055e+00 1.094219999999999970e+00 8.811109999999999332e+00 6.835670000000000357e+00