7.316070000000000073e-01 2.267590999999999912e+00 -8.442779999999999729e-01 -3.092648000000000064e+00 9.667599999999999805e-02 -7.240710000000000202e-01 -1.761846000000000023e+00 -2.593776000000000082e+00 -7.944820000000000215e-01 -1.663429999999999964e+00 -8.156740000000000101e-01 1.501517999999999908e+00 -2.439169999999999949e-01 -1.924063999999999997e+00 -4.795361999999999902e+00 -5.876369999999999649e-01 -2.284911000000000136e+00 4.314917999999999587e+00 -6.538850000000000495e-01 -3.531960999999999906e+00 -2.293807000000000151e+00 -1.791339999999999932e+00 1.239808999999999939e+00 1.581350999999999951e+00 2.330036999999999914e+00 1.719138999999999973e+00 2.146101999999999954e+00 1.949256000000000100e+00 -1.979805999999999955e+00 -1.660465000000000080e+00 -2.517301999999999929e+00 -4.937649000000000399e+00 6.948929999999999829e-01 -1.273930000000000062e-01 -4.062875000000000014e+00 1.191900000000000043e-01 3.696445000000000203e+00 2.499934999999999796e+00 -5.548399999999999860e-02 3.799339999999999939e-01 -6.200090000000000323e-01 1.217084999999999972e+00 -7.489749999999999464e-01 3.439650000000000207e-01 1.628025999999999973e+00 1.394603000000000037e+00 3.467100999999999988e+00 1.852549999999999919e+00 9.570880000000000498e-01 6.980509999999999771e-01 -4.469013000000000346e+00 1.308969999999999967e+00 -3.348869999999999791e+00 9.302510000000000501e-01 -5.143830000000000346e-01 -1.047055999999999987e+00 4.795730000000000270e-01 -1.538750000000000062e+00 -8.243970000000000464e-01 -4.488869999999999805e-01 6.164030000000000342e-01 2.417928999999999995e+00 -2.877224000000000004e+00 -3.886180000000000190e-01 2.202364999999999906e+00 2.014419999999999877e+00 5.385109999999999619e-01 1.486359999999999904e+00 2.641599999999999948e+00 7.247040000000000148e-01 9.376659999999999995e-01 1.364730999999999916e+00 -2.290437999999999974e+00 3.955213000000000090e+00 -2.151680999999999955e+00 -1.036969999999999947e+00 2.106704000000000132e+00 -2.308234000000000119e+00 -2.557309000000000054e+00 -6.468019999999999881e-01 3.174899999999999944e-02 8.764119999999999688e-01 -1.552947000000000077e+00 -3.599215000000000053e+00 3.469800000000000106e-01 -2.643749000000000127e+00 -9.632180000000000186e-01 -1.845237999999999934e+00 -6.962559999999999860e-01 1.892343000000000108e+00 3.854310000000000236e-01 -7.261670000000000069e-01 2.725699999999999790e+00 1.375521999999999911e+00 -1.935302999999999995e+00 1.032929999999999959e-01 8.228609999999999536e-01 4.326768000000000391e+00 -1.826702000000000048e+00 3.842156999999999822e+00 -5.530100000000000293e-02 3.046059999999999879e-01 3.491982000000000141e+00 7.828359999999999763e-01 1.551833999999999936e+00 -1.053506999999999971e+00 1.237935000000000008e+00 2.469187999999999938e+00 9.748360000000000358e-01 -1.765419000000000072e+00 4.787660000000000249e-01 1.562888000000000055e+00 4.617000000000000270e-02 1.379137000000000057e+00 2.337248999999999910e+00 1.230021999999999949e+00 -8.795880000000000365e-01 8.600870000000000459e-01 8.653500000000000081e-02 1.243757000000000001e+00 -6.752679999999999794e-01 -4.303125999999999785e+00 1.144414000000000042e+00 7.377139999999999809e-01 2.301501000000000019e+00 -3.149198999999999860e+00 2.691999999999999948e-01 2.020849999999999869e-01 7.145660000000000345e-01 8.703570000000000473e-01 6.108109999999999928e-01 -1.356670000000000098e-01 -7.930939999999999657e-01 -1.547312999999999938e+00 1.113922999999999996e+00 5.699279999999999902e-01 2.092489000000000043e+00 -8.242000000000000437e-01 1.195240000000000052e-01 1.168466000000000005e+00 -4.123879999999999768e-01 -7.124260000000000037e-01 1.845277000000000056e+00 9.818740000000000245e-01 2.249150000000000205e+00 -1.939872999999999958e+00 5.998200000000000059e-02 1.096743999999999941e+00 -9.266299999999999537e-01 4.928500000000000103e-01 -5.498030000000000417e-01 2.428967999999999794e+00 -1.623310999999999948e+00 1.130319999999999991e+00 -4.730199999999999960e-01 1.321223000000000036e+00 3.126340000000000230e-01 -1.306755000000000111e+00 1.014896000000000020e+00 -2.002510000000000123e-01 1.671509999999999940e-01 -8.396890000000000187e-01 1.096759999999999957e-01 1.509311000000000069e+00 -1.071425999999999989e+00 1.486922999999999995e+00 3.550269999999999815e+00 -2.642824000000000062e+00 -5.267629999999999812e-01 3.863424999999999887e+00 -2.385879000000000083e+00 -4.745770000000000266e-01 -6.453889999999999905e-01 -6.815200000000000424e-02 -5.620450000000000168e-01 7.601139999999999564e-01 1.212280000000000024e-01 -2.687579999999999969e-01 1.684069999999999956e+00 -2.661419999999999897e-01 -2.581269999999999953e-01 -1.755168000000000061e+00 1.456930999999999976e+00 -3.094371999999999900e+00 7.465190000000000436e-01 -1.991589999999999971e+00 -4.165920999999999985e+00 -3.332875000000000032e+00 -3.749632000000000076e+00 5.394800000000000290e-02 -1.972596000000000016e+00 -1.239305000000000101e+00 -9.183810000000000029e-01 -2.094021999999999828e+00 1.057600000000000033e-02 -2.592916999999999916e+00 1.467144999999999921e+00 -1.809976999999999947e+00 -1.191189000000000053e+00 -7.590409999999999657e-01 -2.528700000000000045e-02 -7.916590000000000016e-01 8.403439999999999799e-01 1.347121999999999931e+00 1.323083999999999927e+00 3.052610000000000046e-01 1.036429000000000045e+00 3.775450000000000195e-01 5.268939999999999735e-01 6.154039999999999511e-01 -2.296533000000000158e+00 -1.507112999999999925e+00 -9.715789999999999704e-01 2.265479000000000021e+00 8.431250000000000133e-01 -1.317234000000000016e+00 -4.014989999999999948e-01 7.405049999999999688e-01 1.147793000000000063e+00 -1.168058000000000041e+00 -1.133539999999999964e-01 -2.329251999999999878e+00 1.600630999999999915e+00 -6.060510000000000064e-01 1.970407999999999937e+00 -6.006179999999999852e-01 1.602408000000000055e+00 -9.053550000000000209e-01 -1.940487000000000073e+00 1.953996999999999984e+00 2.727965999999999891e+00 -1.611974000000000018e+00 2.089100999999999875e+00 9.161500000000000199e-02 2.843860000000000277e-01 7.104430000000000467e-01 1.044759999999999911e+00 -1.304639999999999966e-01 3.099599999999999925e-02 1.198607999999999896e+00 -3.651650000000000174e-01 1.368784999999999918e+00 -1.206471999999999989e+00 1.289719000000000060e+00 -1.321463999999999972e+00 3.043530000000000069e+00 1.509724000000000066e+00 1.883134000000000086e+00 4.936769999999999770e-01 -1.417013999999999996e+00 4.362504000000000381e+00 2.815434999999999910e+00 -1.393337000000000048e+00 -4.168229999999999991e-01 -1.698800000000000032e-01 -7.981930000000000414e-01 -1.817004999999999981e+00 -1.558610999999999969e+00 -6.157340000000000035e-01 -1.100368000000000013e+00 5.973889999999999478e-01 6.553250000000000464e-01 -6.293689999999999563e-01 -2.049600000000000033e-01 4.869749999999999912e-01 -2.658234999999999904e+00 -7.927399999999999725e-02 2.724580000000000002e+00 -1.591579999999999939e-01 -1.515101000000000031e+00 2.003878999999999966e+00 -3.119594999999999896e+00 2.094856000000000051e+00 -1.031969999999999971e-01 -2.306538999999999895e+00 -1.399380000000000068e-01
-1.189211999999999936e+00 1.391688999999999954e+00 -2.302740000000000065e-01 1.230723999999999929e+00 -3.807668000000000053e+00 1.930946000000000051e+00 5.087990000000000013e-01 1.841979000000000033e+00 -7.973559999999999537e-01 3.735726000000000102e+00 1.955778999999999934e+00 -8.963160000000000016e-01 3.652749000000000024e+00 -1.347968000000000055e+00 -6.399989999999999846e-01 -2.578799999999999981e-01 7.863599999999999479e-01 -7.772379999999999844e-01 5.526419999999999666e-01 1.072826000000000057e+00 4.145750000000000268e-01 2.148388000000000186e+00 -4.128578000000000081e+00 8.953988000000000724e+00 7.073180000000000023e-01 3.376265000000000072e+00 3.215446000000000026e+00 2.512906999999999780e+00 -7.729129999999999612e-01 -1.192905000000000104e+00 7.419499999999999984e-01 -1.546594999999999942e+00 -9.684789999999999788e-01 6.862169999999999659e-01 -1.445960000000000023e-01 -1.381010999999999989e+00 -5.055932999999999566e+00 -5.169499999999999790e-02 3.016942999999999930e+00 1.082354000000000038e+00 1.729519999999999946e-01 9.932079999999999798e-01 -1.616009999999999946e+00 4.700019000000000169e+00 -3.839779000000000053e+00 1.433094000000000090e+00 -2.856298999999999921e+00 1.402106999999999992e+00 -1.346888000000000085e+00 -1.453011999999999970e+00 4.777980000000000005e-01 -4.233843000000000245e+00 3.492408000000000179e+00 9.647569999999999757e-01 6.060130000000000239e-01 2.309448999999999863e+00 -1.705696000000000101e+00 -4.038006000000000206e+00 -1.586311999999999944e+00 -1.329115999999999964e+00 -4.439879999999999938e-01 1.162787999999999933e+00 1.444187000000000110e+00 3.522323000000000093e+00 3.108551999999999982e+00 3.103790000000000049e+00 2.839369000000000032e+00 3.462915000000000187e+00 1.779317999999999955e+00 -1.404999000000000109e+00 -8.344899999999999540e-02 -2.780730000000000146e-01 -3.368720999999999854e+00 -1.101645999999999903e+00 -2.884754000000000040e+00 1.742085000000000106e+00 3.484999999999999765e-01 -8.696409999999999973e-01 4.057642999999999667e+00 2.173951000000000189e+00 1.819570000000000076e-01 2.343494000000000188e+00 -5.976669999999999483e-01 3.514832999999999874e+00 -3.146989000000000036e+00 1.065082000000000084e+00 -5.134840000000000515e-01 1.060321999999999987e+00 7.549439999999999484e-01 -3.006813999999999876e+00 -1.965000000000000080e-02 1.349107999999999974e+00 -8.502210000000000045e-01 2.657343000000000011e+00 7.290140000000000509e-01 -5.742380000000000262e-01 1.558440000000000047e+00 -1.842979999999999896e-01 -4.402539999999999787e-01 -6.323299999999999754e-02 -5.522599999999999731e-01 1.059671999999999947e+00 4.228669999999999929e-01 -2.480122000000000160e+00 3.763269000000000197e+00 -6.924178999999999640e+00 3.309455999999999953e+00 -4.900748000000000104e+00 -8.774370000000000225e-01 -2.543541999999999970e+00 -3.373434000000000044e+00 6.477180000000000160e-01 -2.957330000000000236e-01 2.218617000000000061e+00 2.493506000000000000e+00 -1.073796999999999890e+00 1.304602000000000039e+00 -3.428564999999999863e+00 -1.448878000000000110e+00 -2.561525000000000052e+00 -8.597489999999999855e-01 1.367412000000000072e+00 -1.751838000000000006e+00 -1.766129999999999978e+00 -3.828790000000000249e-01 1.381005999999999956e+00 -2.449717000000000144e+00 5.288019999999999943e-01 -2.054010000000000002e-01 2.421399000000000079e+00 -3.184676000000000062e+00 4.978850000000000220e-01 -1.043047000000000057e+00 3.895881000000000149e+00 1.118695999999999913e+00 -4.684633999999999965e+00 2.578672000000000075e+00 1.325291999999999915e+00 -1.049582999999999933e+00 7.753999999999999782e-02 1.507309999999999928e+00 -9.271239999999999482e-01 6.751489999999999991e-01 1.573396999999999935e+00 -2.557398000000000060e+00 7.939709999999999823e-01 -1.205151000000000083e+00 -3.819370000000000154e+00 -5.452379999999999782e+00 9.260610000000000230e-01 4.113820000000000254e-01 8.815009999999999790e-01 -1.193313000000000068e+00 6.213359999999999994e-01 -6.208749999999999547e-01 -3.008395999999999848e+00 3.422893000000000185e+00 2.444510000000000016e-01 2.229801000000000144e+00 -6.798910000000000231e-01 9.057779999999999720e-01 -1.193613999999999953e+00 1.678987000000000007e+00 1.596767999999999965e+00 -1.485360000000000014e-01 4.233560000000000101e-01 -8.805799999999999739e-02 3.990909999999999735e-01 -6.670920000000000183e-01 1.100100000000000036e-02 -1.097930000000000017e-01 3.038278000000000034e+00 2.705608999999999931e+00 -2.789699000000000151e+00 -1.542095999999999911e+00 -9.676259999999999861e-01 -1.408444999999999947e+00 2.079650000000000110e-01 1.662204000000000015e+00 1.102370000000000017e-01 -9.311460000000000292e-01 3.952320000000000277e-01 4.265320000000000222e-01 2.492347999999999786e+00 -3.320018999999999831e+00 -3.375939999999999941e+00 -8.162890000000000423e-01 -1.176992000000000038e+00 2.202522000000000091e+00 2.002571999999999797e+00 2.568652999999999853e+00 3.964030000000000054e-01 -5.141660000000000119e-01 -2.778432000000000013e+00 -1.092629999999999990e+00 6.177700000000000413e-01 1.027438999999999991e+00 -1.150163999999999964e+00 -9.686449999999999783e-01 -1.052122999999999919e+00 4.247489999999999877e-01 1.904399999999999843e-02 -2.769429000000000141e+00 -3.452544000000000057e+00 9.910750000000000393e-01 -3.543735999999999997e+00 -9.766890000000000294e-01 -2.406300000000000106e-01 -1.655269000000000101e+00 -2.242059999999999942e+00 2.574095999999999940e+00 -1.463761000000000090e+00 -2.049300000000000010e-01 5.444569999999999688e-01 -1.799109000000000069e+00 -5.000250000000000528e-01 -1.141542999999999974e+00 -1.043680000000000024e-01 1.965959999999999930e+00 -3.876281000000000088e+00 1.527767000000000097e+00 -7.968999999999999695e-02 -6.839739999999999709e-01 4.615799999999999764e-02 -2.042352000000000167e+00 -3.343237999999999932e+00 -2.051267999999999869e+00 -3.114946000000000215e+00 2.521730999999999945e+00 1.676020000000000010e-01 2.025342000000000198e+00 1.769829000000000097e+00 6.374149999999999539e-01 2.618427000000000060e+00 -1.029118999999999895e+00 -7.277040000000000175e-01 4.145989999999999953e-01 9.834709999999999841e-01 -3.113949999999999774e-01 -2.470921000000000145e+00 1.225641999999999898e+00 1.084187000000000012e+00 1.630166999999999922e+00 -1.387316999999999911e+00 -6.106770000000000254e-01 2.857029999999999959e+00 -7.009940000000000060e-01 -1.563795999999999964e+00 -8.812950000000000506e-01 -2.018358999999999792e+00 -2.028439999999999965e-01 1.717133000000000020e+00 3.377937000000000189e+00 -2.876779999999999893e-01 8.573690000000000477e-01 3.239239999999999897e-01 8.148849999999999705e-01 2.210675999999999863e+00 2.958009999999999806e+00 -1.531438000000000077e+00 -1.941367999999999983e+00 9.088380000000000347e-01 -2.251606000000000218e+00 -9.913290000000000157e-01 -2.249521000000000104e+00 5.281599999999999628e-01 1.744952000000000059e+00 5.723629999999999551e-01 1.650317000000000034e+00 7.543279999999999985e-01 -1.697176000000000018e+00 9.006610000000000449e-01 4.823770000000000002e-01 2.007060000000000066e+00 1.179169999999999940e-01 -1.994933000000000067e+00
8.138130000000000086e-01 2.245849999999999902e+00 4.408349999999999769e-01 4.218230000000000035e-01 1.353931999999999913e+00 -1.520866000000000051e+00 -4.336470000000000047e-01 -1.130309999999999926e+00 1.060003999999999946e+00 -1.043550999999999895e+00 2.154605000000000103e+00 -7.347740000000000382e-01 -1.371717999999999993e+00 -1.602581999999999951e+00 -1.309131999999999962e+00 1.817358999999999947e+00 2.310036999999999896e+00 4.053698999999999941e+00 -1.856082999999999927e+00 -2.226740000000000108e-01 1.390420999999999907e+00 1.872108000000000105e+00 -3.064979999999999816e+00 -2.611587000000000103e+00 4.883239999999999803e-01 6.203700000000000186e-02 -2.531950999999999841e+00 1.803128999999999982e+00 -1.241727999999999943e+00 2.094238999999999962e+00 4.674740000000000006e-01 -1.012308999999999903e+00 -1.830335999999999963e+00 1.968817000000000039e+00 -2.303643000000000107e+00 -2.121196999999999999e+00 -2.794398999999999855e+00 1.922687000000000035e+00 -3.714419999999999944e-01 -2.035782999999999898e+00 7.900989999999999958e-01 -1.806125999999999898e+00 2.312704999999999789e+00 -3.157690000000000219e-01 -2.281562999999999786e+00 -1.508279999999999899e-01 6.888210000000000166e-01 -4.122370000000000201e-01 5.105119999999999658e-01 -8.796749999999999847e-01 9.653690000000000326e-01 -1.351383000000000001e+00 4.230329999999999924e-01 5.231369999999999632e-01 8.728089999999999460e-01 -1.642107999999999901e+00 2.787393999999999927e+00 -2.484884000000000093e+00 -1.160560000000000064e-01 2.210430999999999813e+00 8.684950000000000170e-01 1.642282000000000020e+00 1.965524000000000049e+00 3.312520000000000131e+00 -5.412449999999999761e+00 4.655607999999999969e+00 2.753270000000000106e+00 1.505420000000000091e-01 1.198080999999999952e+00 -2.032119999999999926e+00 -3.722539999999999738e-01 -3.606199999999999684e-02 -1.138738999999999946e+00 4.847660000000000302e+00 2.393028000000000155e+00 -5.791089999999999849e-01 -1.722218999999999944e+00 -1.815967000000000109e+00 -4.969250000000000056e-01 -4.322509999999999963e-01 -1.678660000000000041e+00 -2.579415000000000013e+00 2.175727000000000189e+00 -1.815641999999999978e+00 1.151547000000000098e+00 -7.530229999999999979e-01 9.275959999999999761e-01 6.232109999999999594e-01 3.017119999999999802e-01 1.340634000000000103e+00 -6.252889999999999837e-01 2.364425000000000221e+00 3.903710999999999931e+00 8.206909999999999483e-01 1.358851999999999949e+00 -2.150630000000000042e+00 -8.399309999999999832e-01 -1.386370000000000102e-01 -1.137340999999999935e+00 2.928364999999999885e+00 1.299091999999999913e+00 3.362808999999999937e+00 -2.134665000000000035e+00 3.199380000000000002e-01 5.486870000000000358e-01 9.203999999999999682e-02 -1.215808999999999918e+00 5.102820000000000134e-01 -1.467503999999999920e+00 -1.703113000000000099e+00 -7.476540000000000408e-01 -3.796399999999999775e-02 -9.652180000000000204e-01 4.393320000000000003e-01 2.482763999999999971e+00 -2.152277000000000218e+00 -3.758369000000000071e+00 -1.458488999999999924e+00 -1.156487000000000043e+00 2.740270000000000206e-01 -7.586589999999999723e-01 1.980595000000000105e+00 2.725949999999999762e-01 8.401699999999999724e-01 -8.124080000000000190e-01 -8.893750000000000266e-01 -1.509810000000000096e+00 5.165220000000000367e-01 -1.620529000000000108e+00 1.637839999999999963e+00 1.054691000000000045e+00 1.977646000000000015e+00 -4.785799999999999776e-02 -1.404042000000000012e+00 -2.394009000000000054e+00 1.040764000000000022e+00 -6.796259999999999524e-01 -2.559209000000000067e+00 2.910179999999999989e-01 1.824656999999999973e+00 1.675944000000000100e+00 -1.343674999999999953e+00 1.165038999999999936e+00 -4.764309999999999934e-01 -7.775940000000000074e-01 9.547740000000000116e-01 -4.682729999999999948e-01 2.256629000000000218e+00 -7.491100000000000536e-01 6.503899999999999959e-02 -6.991720000000000157e-01 -1.838924999999999921e+00 -1.754380000000000051e+00 -9.067410000000000192e-01 1.323452999999999991e+00 5.285050000000000026e-01 -3.084000000000000075e-01 -5.689180000000000348e-01 -9.138239999999999696e-01 -1.874300999999999995e+00 -5.114090000000000025e-01 -2.136865999999999932e+00 -3.243860000000000077e-01 1.551860000000000017e+00 1.783752000000000004e+00 2.120299999999999851e+00 -8.752250000000000307e-01 -1.619369999999999976e-01 9.597569999999999713e-01 -4.762040000000000162e-01 -1.853985999999999912e+00 -1.791929999999999912e-01 8.245320000000000427e-01 4.594969999999999888e-01 -5.761999999999999761e-02 -1.639359999999999984e-01 -1.220439999999999969e+00 1.564437999999999995e+00 3.361245999999999956e+00 7.765739999999999865e-01 -9.044199999999999462e-02 -3.732639999999999847e-01 -6.451919999999999877e-01 -2.245162000000000102e+00 1.686258000000000035e+00 -2.486777000000000015e+00 -1.421896000000000049e+00 -1.427294000000000063e+00 2.722132000000000218e+00 1.281595999999999957e+00 -1.691181000000000045e+00 -4.594010000000000038e-01 -1.200574000000000030e+00 -3.530035999999999952e+00 -8.288499999999999757e-01 -1.689742999999999995e+00 3.218090999999999813e+00 3.166024000000000171e+00 -5.745440000000000547e-01 -2.231176000000000048e+00 -7.821669999999999456e-01 -4.474079999999999724e-01 7.414899999999999824e-01 -1.432503000000000082e+00 -4.001877000000000351e+00 2.649512000000000089e+00 2.903535000000000199e+00 -2.790202999999999989e+00 2.560140999999999778e+00 2.169881000000000171e+00 6.214239999999999764e-01 -7.467580000000000329e-01 1.177491000000000065e+00 -1.516305999999999932e+00 9.485430000000000250e-01 6.771359999999999602e-01 -5.864810000000000301e-01 -2.176489999999999814e+00 1.336897000000000002e+00 1.606516999999999973e+00 -3.605996000000000201e+00 -3.198196999999999957e+00 -2.708809999999999829e-01 2.200320000000000054e+00 1.588130000000000097e-01 -1.180701000000000001e+00 2.681531999999999805e+00 -8.300680000000000280e-01 -1.581099999999999867e-02 2.533551999999999804e+00 -7.666490000000000249e-01 -5.178499999999999770e-02 1.394327000000000094e+00 -3.051876000000000033e+00 1.650800000000000045e-01 7.136749999999999483e-01 -1.189638999999999891e+00 1.143129999999999979e-01 -2.545094000000000189e+00 -6.806069999999999620e-01 5.633740000000000414e-01 -1.207341999999999915e+00 7.417650000000000077e-01 2.408247999999999944e+00 1.830564000000000080e+00 2.532573000000000185e+00 1.106551999999999980e+00 -1.791611000000000065e+00 -1.333300000000000041e-01 7.307199999999999807e-02 6.407570000000000210e-01 -4.353779999999999872e-01 2.469559999999999977e+00 1.519729000000000108e+00 -1.142314999999999969e+00 -1.132480000000000014e-01 -4.625950999999999702e+00 1.796736000000000111e+00 -7.149839999999999529e-01 -4.362940000000000151e-01 -3.419349999999999890e-01 5.640490000000000226e-01 -1.390816999999999970e+00 -4.740897999999999612e+00 5.740650000000000475e-01 1.065366000000000035e+00 2.195463000000000164e+00 2.294338999999999906e+00 -1.876805000000000057e+00 2.072092000000000045e+00 9.613960000000000283e-01 -7.198010000000000241e-01 1.663348999999999966e+00 7.155989999999999851e-01 6.587290000000000090e-01 3.682819999999999983e-01
2.118850999999999818e+00 -2.446378999999999859e+00 9.151780000000000470e-01 4.838160000000000238e-01 -6.259710000000000552e-01 -1.106414000000000009e+00 -1.924708000000000085e+00 2.235969999999999902e-01 9.877200000000000424e-01 2.615660000000000207e-01 2.100006000000000039e+00 -7.974489999999999634e-01 -3.634799000000000113e+00 1.693495999999999890e+00 -3.272279000000000160e+00 3.484726999999999908e+00 -1.930730000000000057e+00 -8.407689999999999886e-01 -4.423537999999999748e+00 -2.633265999999999885e+00 2.809985000000000177e+00 -1.324831000000000092e+00 7.673590000000000133e-01 3.154799999999999827e-01 1.459724999999999939e+00 6.707799999999999874e-02 4.264859999999999762e-01 9.466470000000000162e-01 -2.388040999999999858e+00 2.283063999999999982e+00 5.264590000000000103e-01 8.093920000000000003e-01 -4.292259999999999964e-01 1.015784000000000020e+00 9.705409999999999870e-01 -8.613099999999999923e-02 2.160928000000000182e+00 -2.150200000000000028e-02 -7.683039999999999869e-01 -7.816100000000000270e-01 -1.449439999999999895e-01 1.335722999999999994e+00 -2.335599999999999829e-02 1.296866999999999992e+00 1.805711999999999984e+00 -4.083103999999999623e+00 -1.390629999999999922e-01 1.748693999999999971e+00 -2.463960000000000039e-01 -8.324930000000000385e-01 -5.306760000000000366e-01 1.480142999999999986e+00 -2.168059999999999987e-01 2.058558999999999806e+00 -3.373008000000000006e+00 9.568710000000000271e-01 -2.755736999999999881e+00 -2.134282999999999930e+00 2.268100000000000116e-01 -3.518870999999999860e+00 -2.040522000000000169e+00 -3.711209999999999787e-01 1.823876999999999970e+00 -1.243640000000000079e+00 1.342770000000000019e+00 -2.118939999999999990e-01 -2.800234999999999808e+00 4.597729999999999873e-01 -6.514950000000000463e-01 1.064561000000000091e+00 1.563827000000000078e+00 -2.283951000000000064e+00 -1.994186000000000014e+00 2.482645000000000213e+00 1.833809999999999885e-01 7.862249999999999517e-01 -3.080959999999999810e-01 -1.392846000000000029e+00 4.909800000000000275e-02 -4.541099999999999998e-02 1.560065999999999953e+00 -1.630830000000000057e-01 -4.350849999999999995e-01 1.383979999999999932e-01 2.302877000000000063e+00 -1.219330000000000025e+00 8.215970000000000217e-01 -3.643369999999999997e+00 -1.887437999999999949e+00 -1.316354999999999942e+00 1.238426000000000027e+00 -7.264909999999999979e-01 7.636220000000000230e-01 2.127766999999999964e+00 1.464555000000000051e+00 2.933781000000000194e+00 5.918750000000000400e-01 8.653800000000000381e-02 2.979220000000000201e-01 1.528789999999999871e-01 -1.271922999999999915e+00 -9.746770000000000156e-01 3.566750000000000198e-01 -3.642965999999999926e+00 -2.315799999999999859e+00 5.779779999999999918e-01 4.079490000000000061e-01 -4.275099999999999734e-02 -5.359059999999999935e-01 2.104225000000000012e+00 1.340210000000000012e-01 2.696919999999999873e-01 -1.648843999999999976e+00 -1.130447999999999897e+00 -4.859970000000000123e-01 1.246649999999999980e-01 -8.388120000000000021e-01 2.130579999999999974e-01 1.958209999999999951e-01 2.065291000000000210e+00 1.370258999999999894e+00 -1.834989999999999954e-01 -1.697256000000000098e+00 6.185329999999999995e-01 -1.238696999999999937e+00 -1.090909999999999935e-01 -6.179219999999999713e-01 -1.156692000000000053e+00 3.065740000000000132e-01 -3.324750000000000205e-01 1.033771999999999913e+00 1.018649999999999972e-01 2.282750000000000057e+00 4.004861000000000004e+00 4.576839999999999797e-01 -1.904589999999999894e-01 9.598100000000000520e-01 3.372749999999999915e-01 1.001873999999999931e+00 4.937790000000000235e-01 -1.712693999999999939e+00 -1.827317999999999998e+00 -1.256618999999999930e+00 -2.287199999999999997e-02 2.028016000000000041e+00 5.107999999999999693e-03 -6.429620000000000335e-01 -1.989552999999999905e+00 3.354511000000000021e+00 8.479590000000000183e-01 5.449500000000000455e-01 9.320900000000000019e-02 8.480750000000000233e-01 1.162711999999999968e+00 -1.213000000000000016e-02 -6.975710000000000521e-01 2.751126000000000182e+00 2.435576999999999881e+00 1.533566999999999902e+00 -2.179949999999999943e-01 3.286649999999999849e-01 -1.049171000000000076e+00 1.349494999999999889e+00 7.336920000000000108e-01 -1.473764000000000074e+00 2.039090000000000069e-01 -5.962340000000000417e-01 7.968049999999999855e-01 1.644970000000000043e+00 3.246629999999999794e-01 8.080810000000000493e-01 1.866649999999999976e-01 3.487770000000000037e-01 -2.485020000000000007e-01 1.382501999999999898e+00 -1.534459000000000017e+00 2.192080999999999946e+00 -1.570794000000000024e+00 -3.230958000000000219e+00 -2.600439000000000167e+00 -1.496853999999999907e+00 2.317980000000000040e-01 1.650544000000000011e+00 -1.189065000000000039e+00 3.160399999999999876e-01 -1.925499999999999989e-01 -6.336800000000000210e-01 -1.387051000000000034e+00 3.504639999999999977e-01 5.416109999999999536e-01 -4.021270000000000122e-01 2.101379999999999915e-01 -6.139820000000000277e-01 3.339789999999999814e+00 -1.475141999999999953e+00 -9.736050000000000537e-01 1.317679999999999962e+00 -7.261450000000000404e-01 2.733363999999999905e+00 -1.273716999999999988e+00 -8.863400000000000167e-01 1.950747000000000009e+00 -1.041239999999999943e+00 -2.546740000000000115e-01 -1.344991999999999965e+00 -4.194260000000000210e-01 1.485988000000000087e+00 -5.535120000000000040e-01 8.584289999999999976e-01 9.420429999999999637e-01 -1.220037999999999956e+00 4.565660000000000274e-01 1.230780000000000068e-01 1.098330000000000001e-01 -5.631760000000000099e-01 8.440250000000000252e-01 9.811250000000000249e-01 -1.149564999999999948e+00 8.610740000000000061e-01 -4.563119999999999954e-01 2.031640000000000112e-01 4.449890000000000234e-01 -1.181380000000000097e+00 -5.264440000000000230e-01 2.094550000000000023e-01 -9.069519999999999804e-01 1.669700000000000073e-01 -9.435689999999999911e-01 4.621000000000000107e-02 -1.180060000000000109e+00 -2.793235000000000134e+00 -3.857849999999999890e-01 -1.756790999999999991e+00 4.261139999999999928e-01 1.111247000000000096e+00 -6.352189999999999781e-01 1.462007999999999974e+00 1.411920000000000064e+00 -1.508474000000000093e+00 8.240669999999999940e-01 7.224169999999999758e-01 -1.005521000000000109e+00 -7.989699999999999580e-01 -1.946123999999999965e+00 -1.116602000000000094e+00 1.143391000000000046e+00 2.657169999999999810e-01 -1.436699999999999956e-02 -1.228347999999999995e+00 1.792904999999999971e+00 1.738825999999999983e+00 -1.777519999999999933e-01 -1.594769000000000103e+00 9.525120000000000253e-01 1.107096999999999998e+00 1.787370000000000070e-01 3.001179999999999959e-01 -3.181789999999999896e-01 3.014209999999999945e-01 -1.439750000000000085e+00 9.064800000000000635e-02 -8.210840000000000360e-01 6.250700000000000145e-01 1.119925999999999977e+00 8.889839999999999964e-01 -7.973729999999999984e-01 2.770791000000000004e+00 -6.425760000000000360e-01 -2.904190999999999967e+00 -1.934859999999999913e-01 3.592922999999999867e+00 4.300570999999999700e+00 -3.396383999999999848e+00 7.371170000000000222e-01 2.997536000000000200e+00 -8.003839999999999844e-01