2.750830000000000108e+00 2.000000000000000042e-02 2.664649999999999963e+00 2.687580000000000080e+00 5.043999999999999873e-02 8.020540000000000447e+00 2.708870000000000111e+00 5.132200000000000095e+00 2.630240000000000133e+00 2.789050000000000029e+00 5.042869999999999742e+00 8.016920000000000712e+00 1.008530000000000015e+01 2.572509999999999852e+00 2.441419999999999924e+00 7.348000000000000365e-02 2.634069999999999911e+00 7.661599999999999966e+00 1.004841000000000051e+01 7.692849999999999966e+00 2.325050000000000061e+00 8.735999999999999321e-02 7.633680000000000021e+00 7.716859999999999609e+00 7.834220000000000184e+00 2.575110000000000010e+00 5.006829999999999892e+00 7.758519999999999861e+00 2.619759999999999867e+00 1.025487000000000037e+01 7.878059999999999619e+00 7.759979999999999656e+00 5.102680000000000327e+00 7.766799999999999926e+00 7.604790000000000383e+00 1.025237000000000087e+01 5.145419999999999661e+00 1.011721000000000004e+01 6.176000000000000240e-02 5.089649999999999785e+00 1.013420999999999950e+01 5.366740000000000066e+00 5.107199999999999740e+00 5.040510000000000268e+00 1.365099999999999925e-01 5.059999999999999609e+00 5.118459999999999788e+00 5.313390000000000057e+00 5.086240000000000094e+00 2.530930000000000124e+00 2.406519999999999992e+00 5.061609999999999943e+00 2.504440000000000222e+00 7.511099999999999888e+00 5.147120000000000140e+00 7.655569999999999986e+00 2.403059999999999974e+00 5.123009999999999842e+00 7.598349999999999937e+00 7.630449999999999733e+00 7.776370000000000005e+00 9.217999999999999805e-02 2.625049999999999883e+00 7.827009999999999579e+00 1.016810000000000080e+01 8.035109999999999530e+00 7.706129999999999924e+00 5.080869999999999997e+00 2.694280000000000008e+00 7.692650000000000432e+00 5.077530000000000321e+00 8.002029999999999532e+00 1.809999999999999977e-03 4.406999999999999806e-02 1.294200000000000073e-01 1.599800000000000111e-01 1.120300000000000046e-01 5.440769999999999662e+00 3.506000000000000089e-02 5.061720000000000219e+00 1.156200000000000006e-01 6.008999999999999758e-02 5.154460000000000264e+00 5.394070000000000142e+00 2.802280000000000104e+00 2.656909999999999883e+00 4.876669999999999838e+00 2.724569999999999936e+00 2.585589999999999833e+00 1.033156999999999925e+01 2.771570000000000089e+00 7.646740000000000315e+00 5.025210000000000399e+00 2.702459999999999862e+00 7.738100000000000200e+00 1.030607000000000006e+01 8.776460000000000150e+00 3.811879999999999935e+00 1.181489999999999929e+00 8.690279999999999561e+00 3.871440000000000214e+00 6.419290000000000163e+00 8.770820000000000505e+00 8.969900000000000873e+00 1.089849999999999985e+00 8.955249999999999488e+00 9.021150000000000446e+00 6.395599999999999952e+00 4.124349999999999739e+00 1.317839999999999900e+00 3.905159999999999965e+00 4.079250000000000043e+00 1.264480000000000048e+00 9.202799999999999869e+00 4.057380000000000209e+00 6.324530000000000207e+00 3.901190000000000158e+00 4.074639999999999596e+00 6.279399999999999871e+00 9.270500000000000185e+00 4.099590000000000067e+00 3.790249999999999897e+00 3.701560000000000183e+00 4.024560000000000137e+00 3.645290000000000141e+00 9.017289999999999139e+00 4.244150000000000311e+00 8.970129999999999271e+00 3.714030000000000165e+00 4.108489999999999753e+00 8.849759999999999849e+00 9.008129999999999526e+00 8.832090000000000884e+00 1.406500000000000083e+00 1.403329999999999966e+00 8.855940000000000367e+00 1.341080000000000050e+00 6.554660000000000153e+00 8.790530000000000399e+00 6.354099999999999859e+00 1.235919999999999908e+00 8.791719999999999757e+00 6.362549999999999706e+00 6.596519999999999939e+00 9.099199999999999733e+00 3.794280000000000097e+00 3.883700000000000152e+00 9.160180000000000433e+00 3.823090000000000099e+00 9.112479999999999691e+00 9.207489999999999952e+00 8.902770000000000294e+00 3.757280000000000175e+00 9.168549999999999756e+00 8.890119999999999578e+00 9.083750000000000213e+00 3.738480000000000025e+00 1.233689999999999953e+00 1.277549999999999963e+00 3.815609999999999946e+00 1.223330000000000028e+00 6.520340000000000025e+00 3.851799999999999891e+00 6.298530000000000406e+00 1.381909999999999972e+00 3.795119999999999827e+00 6.327670000000000350e+00 6.618109999999999715e+00 1.693769999999999998e+00 1.825690000000000035e+00 3.228180000000000049e+00 1.635520000000000085e+00 1.683049999999999935e+00 8.513830000000000453e+00 1.731510000000000105e+00 6.870110000000000383e+00 3.273039999999999949e+00 1.755230000000000068e+00 7.011359999999999815e+00 8.524330000000000851e+00 6.029770000000000074e+00 1.903280000000000083e+00 5.776000000000000023e-01 6.180500000000000327e+00 1.727800000000000002e+00 5.898570000000000313e+00 6.732169999999999987e+00 1.856710000000000083e+00 3.276219999999999910e+00 6.801800000000000068e+00 1.867830000000000101e+00 8.350110000000000809e+00 6.707790000000000141e+00 6.863459999999999894e+00 3.407779999999999809e+00 6.790359999999999729e+00 6.914150000000000240e+00 8.601929999999999410e+00 6.078969999999999985e+00 4.286500000000000199e+00 1.755770000000000053e+00 5.935430000000000206e+00 4.476130000000000386e+00 7.109379999999999811e+00 6.161839999999999762e+00 9.373849999999999127e+00 1.743290000000000006e+00 6.263950000000000351e+00 9.329000000000000625e+00 7.062899999999999956e+00 9.121010000000000062e+00 1.297060000000000102e+00 3.945190000000000197e+00 9.019869999999999166e+00 1.254000000000000004e+00 9.304309999999999192e+00 9.181520000000000792e+00 6.323559999999999626e+00 4.002629999999999910e+00 9.144529999999999603e+00 6.407849999999999824e+00 9.254229999999999734e+00 6.714550000000000018e+00 4.297500000000000320e+00 4.411139999999999617e+00 6.793870000000000076e+00 4.451329999999999565e+00 9.730169999999999320e+00 6.819169999999999732e+00 9.416180000000000661e+00 4.411310000000000286e+00 6.784329999999999750e+00 9.544069999999999609e+00 9.718130000000000379e+00 1.083029999999999937e+00 1.798980000000000024e+00 7.316599999999999770e-01 1.047770000000000090e+00 1.982310000000000016e+00 5.913450000000000095e+00 1.108470000000000066e+00 6.809249999999999581e+00 6.191499999999999782e-01 1.122020000000000017e+00 6.850489999999999746e+00 5.881439999999999557e+00 1.670260000000000078e+00 4.414329999999999643e+00 4.401600000000000179e+00 1.606749999999999901e+00 4.326769999999999783e+00 9.661550000000000082e+00 1.800010000000000110e+00 9.448930000000000717e+00 4.479110000000000369e+00 1.760909999999999975e+00 9.558970000000000411e+00 9.793179999999999552e+00 1.114519999999999955e+00 4.275680000000000369e+00 1.744799999999999907e+00 1.036820000000000075e+00 4.409049999999999692e+00 7.164789999999999992e+00 1.013490000000000002e+00 9.433540000000000703e+00 1.815520000000000023e+00 1.106030000000000069e+00 9.540609999999999147e+00 7.159379999999999633e+00 3.670459999999999834e+00 3.816460000000000186e+00 1.146079999999999988e+00 3.681939999999999991e+00 3.772050000000000125e+00 6.303110000000000213e+00 3.728409999999999780e+00 8.923930000000000362e+00 1.176379999999999981e+00 3.754849999999999799e+00 8.826819999999999666e+00 6.434599999999999653e+00
2.714620000000000033e+00 1.012861000000000011e+01 2.732549999999999812e+00 2.632989999999999942e+00 5.791999999999999926e-02 8.015309999999999491e+00 2.749299999999999855e+00 5.023850000000000371e+00 2.803370000000000140e+00 2.696709999999999940e+00 5.139700000000000379e+00 8.114169999999999661e+00 1.007658999999999949e+01 2.561819999999999986e+00 2.330919999999999881e+00 4.902000000000000107e-02 2.574390000000000178e+00 7.597179999999999822e+00 8.100999999999999868e-02 7.685599999999999987e+00 2.465500000000000025e+00 1.006034000000000006e+01 7.620890000000000164e+00 7.667849999999999611e+00 7.715849999999999653e+00 2.550229999999999997e+00 5.100240000000000329e+00 7.758300000000000196e+00 2.545090000000000074e+00 1.023101999999999911e+01 7.790140000000000065e+00 7.618909999999999627e+00 5.031489999999999796e+00 7.806219999999999715e+00 7.637970000000000148e+00 1.025911999999999935e+01 5.103119999999999656e+00 5.475000000000000006e-02 6.783999999999999753e-02 4.995800000000000018e+00 1.012063000000000024e+01 5.283509999999999707e+00 5.105570000000000164e+00 5.155129999999999768e+00 1.151400000000000062e-01 5.037259999999999849e+00 5.057050000000000267e+00 5.490440000000000431e+00 5.083829999999999849e+00 2.472999999999999865e+00 2.366249999999999964e+00 5.048460000000000392e+00 2.445739999999999803e+00 7.663850000000000051e+00 5.098810000000000286e+00 7.583350000000000257e+00 2.339319999999999844e+00 5.029510000000000147e+00 7.665020000000000167e+00 7.574959999999999916e+00 7.751599999999999824e+00 1.924999999999999975e-02 2.779850000000000154e+00 7.837509999999999977e+00 1.012772999999999968e+01 7.943810000000000038e+00 7.717290000000000205e+00 5.154340000000000366e+00 2.675100000000000033e+00 7.739580000000000126e+00 5.126409999999999911e+00 7.965390000000000192e+00 2.987000000000000072e-02 6.843000000000000471e-02 5.399000000000000327e-02 4.370999999999999885e-02 3.647999999999999854e-02 5.260180000000000078e+00 5.661000000000000060e-02 5.112230000000000274e+00 1.932200000000000029e-01 1.007891000000000048e+01 4.996590000000000309e+00 5.342760000000000176e+00 2.794820000000000082e+00 2.518139999999999823e+00 5.080840000000000245e+00 2.703089999999999993e+00 2.519789999999999974e+00 1.027332000000000001e+01 2.741909999999999847e+00 7.534880000000000244e+00 5.047729999999999606e+00 2.738449999999999829e+00 7.637880000000000003e+00 1.037471999999999994e+01 8.795220000000000482e+00 3.823360000000000092e+00 1.147149999999999892e+00 8.734199999999999520e+00 3.720619999999999816e+00 6.533730000000000260e+00 8.713990000000000791e+00 8.957150000000000389e+00 1.144320000000000004e+00 8.843180000000000263e+00 8.887019999999999698e+00 6.398990000000000400e+00 4.107700000000000351e+00 1.187740000000000018e+00 3.963820000000000121e+00 4.080479999999999663e+00 1.206720000000000015e+00 9.158649999999999736e+00 4.110249999999999737e+00 6.213400000000000034e+00 4.042819999999999858e+00 3.983099999999999863e+00 6.255919999999999703e+00 9.344400000000000261e+00 4.017809999999999881e+00 3.656950000000000145e+00 3.797060000000000102e+00 4.016759999999999664e+00 3.796640000000000015e+00 9.133330000000000837e+00 4.075929999999999609e+00 8.801190000000000069e+00 3.839669999999999916e+00 3.876930000000000209e+00 8.778969999999999274e+00 8.963950000000000529e+00 8.787309999999999732e+00 1.307560000000000056e+00 1.348649999999999904e+00 8.826999999999999957e+00 1.203249999999999931e+00 6.561550000000000438e+00 8.786289999999999267e+00 6.365219999999999878e+00 1.385680000000000023e+00 8.623250000000000526e+00 6.360030000000000072e+00 6.635100000000000442e+00 9.174540000000000362e+00 3.794020000000000170e+00 3.778150000000000119e+00 9.130010000000000403e+00 3.895439999999999792e+00 9.085279999999999134e+00 9.269349999999999312e+00 8.870570000000000732e+00 3.834360000000000213e+00 9.127530000000000143e+00 8.897009999999999863e+00 9.076700000000000657e+00 3.652219999999999800e+00 1.256070000000000020e+00 1.357960000000000056e+00 3.729070000000000107e+00 1.245190000000000019e+00 6.591580000000000439e+00 3.665630000000000166e+00 6.400830000000000020e+00 1.414090000000000069e+00 3.618129999999999846e+00 6.416710000000000136e+00 6.647619999999999862e+00 1.671059999999999990e+00 1.710909999999999931e+00 3.342470000000000052e+00 1.753349999999999964e+00 2.017419999999999991e+00 8.537050000000000693e+00 1.778000000000000025e+00 6.873739999999999739e+00 3.326839999999999797e+00 1.654090000000000060e+00 7.003999999999999559e+00 8.593140000000000001e+00 6.059079999999999799e+00 1.859459999999999891e+00 5.601599999999999913e-01 6.055130000000000123e+00 1.755139999999999922e+00 5.888259999999999827e+00 6.297089999999999854e+00 6.841870000000000118e+00 7.112399999999999833e-01 6.073240000000000194e+00 6.863120000000000331e+00 5.887830000000000119e+00 6.775769999999999627e+00 1.878500000000000059e+00 3.165529999999999955e+00 6.885979999999999990e+00 1.886830000000000007e+00 8.480999999999999872e+00 6.701240000000000308e+00 6.977859999999999729e+00 3.335830000000000073e+00 6.789209999999999745e+00 7.008510000000000240e+00 8.527070000000000149e+00 6.108380000000000365e+00 4.364799999999999791e+00 1.777640000000000109e+00 6.006059999999999732e+00 4.301429999999999865e+00 7.155109999999999637e+00 5.895539999999999559e+00 9.580260000000000886e+00 1.912660000000000027e+00 6.079620000000000246e+00 9.427120000000000388e+00 7.054079999999999906e+00 9.051339999999999719e+00 1.262799999999999923e+00 4.067949999999999733e+00 9.185019999999999740e+00 1.320380000000000109e+00 9.188179999999999126e+00 9.139580000000000481e+00 6.344089999999999563e+00 3.833140000000000214e+00 9.218560000000000088e+00 6.376260000000000261e+00 9.204439999999999955e+00 6.783649999999999736e+00 4.384970000000000034e+00 4.426829999999999821e+00 6.770360000000000156e+00 4.412539999999999907e+00 9.802690000000000126e+00 6.889439999999999564e+00 9.539339999999999264e+00 4.587559999999999860e+00 6.716750000000000220e+00 9.540490000000000137e+00 9.755879999999999441e+00 9.419100000000000250e-01 1.841129999999999933e+00 5.937900000000000400e-01 1.059010000000000007e+00 1.832580000000000098e+00 5.888289999999999580e+00 9.744099999999999984e-01 6.971989999999999910e+00 6.344699999999999784e-01 8.664500000000000535e-01 6.867479999999999585e+00 5.886300000000000310e+00 1.742729999999999890e+00 4.409299999999999997e+00 4.542600000000000193e+00 1.792280000000000095e+00 4.556429999999999758e+00 9.858969999999999345e+00 1.709810000000000052e+00 9.367979999999999308e+00 4.442789999999999573e+00 1.631990000000000052e+00 9.572240000000000748e+00 9.749140000000000583e+00 1.042419999999999902e+00 4.326310000000000322e+00 1.909610000000000030e+00 1.070319999999999938e+00 4.412259999999999849e+00 7.076620000000000132e+00 9.775199999999999445e-01 9.510999999999999233e+00 1.938630000000000075e+00 9.997599999999999820e-01 9.485829999999999984e+00 7.048180000000000334e+00 3.736549999999999816e+00 3.879459999999999908e+00 1.200199999999999934e+00 3.756019999999999914e+00 3.803830000000000044e+00 6.472979999999999734e+00
2.778659999999999908e+00 1.015665000000000084e+01 2.849680000000000213e+00 2.692590000000000039e+00 1.171100000000000058e-01 7.886660000000000004e+00 2.808870000000000200e+00 5.159440000000000026e+00 2.822249999999999925e+00 2.782810000000000006e+00 5.041389999999999816e+00 7.922100000000000364e+00 1.733399999999999941e-01 2.584940000000000015e+00 2.396840000000000082e+00 1.009023000000000003e+01 2.608519999999999950e+00 7.664399999999999658e+00 1.150499999999999995e-01 7.725310000000000343e+00 2.398159999999999847e+00 5.875999999999999973e-02 7.689329999999999998e+00 7.716440000000000410e+00 7.845640000000000391e+00 2.430050000000000043e+00 5.031439999999999912e+00 7.733649999999999913e+00 2.595299999999999940e+00 1.027236000000000082e+01 7.739499999999999602e+00 7.599210000000000242e+00 5.033229999999999649e+00 7.850749999999999673e+00 7.693109999999999893e+00 1.034835999999999956e+01 5.043280000000000207e+00 1.010837000000000074e+01 2.926000000000000129e-02 5.133180000000000298e+00 1.012876999999999938e+01 5.348150000000000404e+00 5.122230000000000061e+00 5.047670000000000101e+00 7.241000000000000214e-02 5.229809999999999626e+00 5.100850000000000328e+00 5.288979999999999571e+00 5.049610000000000376e+00 2.520309999999999828e+00 2.362359999999999793e+00 5.112519999999999953e+00 2.533240000000000158e+00 7.608270000000000088e+00 4.998470000000000191e+00 7.681359999999999744e+00 2.380250000000000199e+00 5.162709999999999688e+00 7.677769999999999762e+00 7.717279999999999696e+00 7.758729999999999905e+00 1.015282000000000018e+01 2.671660000000000146e+00 7.736130000000000173e+00 1.022799999999999959e-01 7.925130000000000230e+00 7.825829999999999842e+00 5.062979999999999592e+00 2.711969999999999992e+00 7.794769999999999754e+00 5.190509999999999735e+00 7.962150000000000283e+00 1.005406999999999940e+01 8.015999999999999515e-02 1.524899999999999867e-01 1.010642999999999958e+01 1.014764000000000088e+01 5.357789999999999608e+00 9.829999999999999849e-02 5.192090000000000316e+00 9.281000000000000361e-02 2.758000000000000035e-02 5.124270000000000103e+00 5.280310000000000059e+00 2.778680000000000039e+00 2.549889999999999990e+00 5.092290000000000205e+00 2.718109999999999804e+00 2.643660000000000121e+00 1.030095999999999989e+01 2.772299999999999986e+00 7.566379999999999661e+00 5.104729999999999990e+00 2.657000000000000028e+00 7.743549999999999933e+00 1.015456000000000003e+01 8.797480000000000189e+00 3.784959999999999880e+00 1.125639999999999974e+00 8.753510000000000346e+00 3.826039999999999885e+00 6.337909999999999933e+00 8.819889999999999119e+00 8.919560000000000599e+00 1.200180000000000025e+00 8.763109999999999289e+00 8.946870000000000545e+00 6.322700000000000209e+00 4.127830000000000332e+00 1.304170000000000051e+00 4.034270000000000245e+00 4.112400000000000055e+00 1.316270000000000051e+00 9.222929999999999851e+00 4.188990000000000435e+00 6.309359999999999857e+00 3.962940000000000129e+00 4.147179999999999644e+00 6.447199999999999598e+00 9.294729999999999492e+00 4.181370000000000253e+00 3.774799999999999933e+00 3.781470000000000109e+00 4.083580000000000432e+00 3.829759999999999831e+00 8.941990000000000549e+00 4.159180000000000099e+00 8.889329999999999288e+00 3.840329999999999799e+00 3.982439999999999980e+00 8.992530000000000356e+00 8.938570000000000348e+00 8.701579999999999870e+00 1.207030000000000047e+00 1.282869999999999955e+00 8.825049999999999173e+00 1.328119999999999967e+00 6.576469999999999594e+00 8.850989999999999469e+00 6.413809999999999789e+00 1.307520000000000016e+00 8.815120000000000289e+00 6.476969999999999672e+00 6.605260000000000353e+00 9.155689999999999884e+00 3.725870000000000015e+00 3.786729999999999929e+00 9.150040000000000617e+00 3.831430000000000113e+00 9.030770000000000408e+00 9.074360000000000426e+00 8.841319999999999624e+00 3.756810000000000205e+00 9.020200000000000884e+00 9.017369999999999663e+00 9.002750000000000696e+00 3.630459999999999798e+00 1.246410000000000018e+00 1.407040000000000068e+00 3.711879999999999846e+00 1.312249999999999917e+00 6.721549999999999692e+00 3.902109999999999967e+00 6.301820000000000199e+00 1.324899999999999967e+00 3.820780000000000065e+00 6.467559999999999754e+00 6.708289999999999864e+00 1.733600000000000030e+00 1.831280000000000019e+00 3.335929999999999840e+00 1.749940000000000051e+00 2.022780000000000022e+00 8.610219999999999985e+00 1.847760000000000069e+00 6.983430000000000248e+00 3.180480000000000196e+00 1.754210000000000047e+00 6.874340000000000117e+00 8.553710000000000591e+00 6.022109999999999630e+00 1.795800000000000063e+00 5.992399999999999949e-01 6.083619999999999806e+00 1.828289999999999971e+00 5.856779999999999653e+00 6.743960000000000399e+00 1.840649999999999897e+00 3.333250000000000046e+00 6.757769999999999833e+00 1.969109999999999916e+00 8.505079999999999529e+00 6.737700000000000244e+00 6.933019999999999960e+00 3.278840000000000199e+00 6.773920000000000385e+00 7.007130000000000081e+00 8.576010000000000133e+00 6.201570000000000249e+00 4.219089999999999563e+00 1.748199999999999976e+00 6.076570000000000249e+00 4.574180000000000135e+00 7.175769999999999982e+00 5.998639999999999972e+00 9.411509999999999820e+00 1.875869999999999926e+00 6.060719999999999885e+00 9.580909999999999371e+00 7.098939999999999806e+00 9.131569999999999965e+00 1.193540000000000045e+00 3.961920000000000108e+00 9.141569999999999752e+00 1.331660000000000066e+00 9.137610000000000454e+00 9.176399999999999224e+00 6.353250000000000064e+00 3.992109999999999825e+00 9.210509999999999309e+00 6.402870000000000061e+00 9.108380000000000365e+00 6.809149999999999814e+00 4.441769999999999996e+00 4.392039999999999722e+00 6.870940000000000047e+00 4.502559999999999896e+00 9.721980000000000288e+00 6.887889999999999624e+00 9.496399999999999508e+00 4.486089999999999911e+00 6.782770000000000188e+00 9.524649999999999395e+00 9.800919999999999632e+00 9.023400000000000309e-01 1.826640000000000041e+00 6.127599999999999714e-01 1.190059999999999896e+00 1.772909999999999986e+00 6.005419999999999980e+00 1.042929999999999913e+00 6.946749999999999758e+00 6.078799999999999759e-01 1.090870000000000006e+00 6.773439999999999905e+00 5.974280000000000257e+00 1.661370000000000013e+00 4.345399999999999707e+00 4.483749999999999680e+00 1.843900000000000095e+00 4.513829999999999565e+00 9.867210000000000036e+00 1.738120000000000109e+00 9.317379999999999995e+00 4.515189999999999593e+00 1.568300000000000027e+00 9.500090000000000146e+00 9.693130000000000024e+00 1.066859999999999919e+00 4.378199999999999648e+00 1.825250000000000039e+00 9.649900000000000144e-01 4.435789999999999900e+00 7.093659999999999854e+00 9.957099999999999840e-01 9.602280000000000371e+00 1.924800000000000066e+00 1.003880000000000106e+00 9.498760000000000758e+00 7.131280000000000285e+00 3.761369999999999880e+00 3.802389999999999937e+00 1.182369999999999921e+00 3.690599999999999881e+00 3.908619999999999983e+00 6.375519999999999854e+00 3.618219999999999992e+00 8.927089999999999748e+00 1.122430000000000039e+00 3.730840000000000156e+00 8.990339999999999776e+00 6.396469999999999878e+00
2.741239999999999899e+00 5.550999999999999684e-02 2.747609999999999886e+00 2.675539999999999807e+00 1.289200000000000068e-01 7.973189999999999777e+00 2.723230000000000040e+00 5.089610000000000412e+00 2.749039999999999928e+00 2.602970000000000006e+00 5.077519999999999811e+00 8.102029999999999177e+00 1.007930999999999955e+01 2.542530000000000179e+00 2.417600000000000193e+00 1.759000000000000147e-02 2.518450000000000077e+00 7.700050000000000061e+00 3.219999999999999946e-02 7.483229999999999826e+00 2.278080000000000105e+00 7.371999999999999387e-02 7.629069999999999574e+00 7.568970000000000198e+00 7.815509999999999735e+00 2.444170000000000176e+00 5.063690000000000246e+00 7.779560000000000031e+00 2.510229999999999961e+00 1.024052999999999969e+01 7.712710000000000399e+00 7.631260000000000154e+00 4.949760000000000382e+00 7.762430000000000163e+00 7.555600000000000094e+00 1.021552999999999933e+01 4.992670000000000385e+00 1.010744000000000042e+01 1.053649000000000058e+01 4.900179999999999758e+00 1.011341000000000001e+01 5.262540000000000440e+00 5.130119999999999791e+00 5.150850000000000151e+00 8.408999999999999808e-02 5.112750000000000128e+00 5.126809999999999867e+00 5.348309999999999675e+00 5.064639999999999809e+00 2.508000000000000007e+00 2.470239999999999991e+00 5.064350000000000129e+00 2.622570000000000068e+00 7.683530000000000193e+00 5.059960000000000235e+00 7.651919999999999611e+00 2.359609999999999985e+00 5.091470000000000162e+00 7.684459999999999624e+00 7.565269999999999939e+00 7.730859999999999843e+00 1.607000000000000095e-02 2.745019999999999794e+00 7.722050000000000303e+00 1.014470999999999989e+01 7.887970000000000148e+00 7.815620000000000012e+00 4.931320000000000370e+00 2.732400000000000162e+00 7.792130000000000223e+00 5.093189999999999884e+00 8.045899999999999608e+00 4.374000000000000110e-02 3.740999999999999881e-02 1.554099999999999926e-01 1.031600000000000017e-01 1.014157999999999937e+01 5.369720000000000049e+00 1.007324000000000019e+01 4.932750000000000412e+00 2.001999999999999891e-01 -2.031000000000000166e-02 5.034989999999999633e+00 5.406830000000000247e+00 2.646860000000000213e+00 2.636379999999999946e+00 5.117729999999999890e+00 2.691370000000000040e+00 2.614809999999999857e+00 1.029162999999999961e+01 2.691990000000000105e+00 7.611530000000000129e+00 5.041339999999999932e+00 2.680930000000000035e+00 7.687229999999999563e+00 1.032522999999999946e+01 8.751089999999999591e+00 3.586619999999999919e+00 1.179419999999999913e+00 8.696740000000000137e+00 3.765439999999999898e+00 6.541949999999999932e+00 8.895699999999999719e+00 8.682010000000000005e+00 9.019599999999999840e-01 8.737289999999999779e+00 8.944549999999999557e+00 6.248910000000000409e+00 4.015329999999999622e+00 1.305860000000000021e+00 3.928939999999999877e+00 4.060310000000000308e+00 1.398649999999999949e+00 9.262159999999999727e+00 4.105769999999999698e+00 6.320610000000000284e+00 3.967740000000000045e+00 4.056499999999999773e+00 6.507080000000000197e+00 9.217689999999999273e+00 4.061230000000000118e+00 3.823999999999999844e+00 3.720720000000000027e+00 4.077619999999999578e+00 3.884370000000000100e+00 9.029880000000000351e+00 4.113170000000000215e+00 8.875629999999999242e+00 3.705319999999999947e+00 4.049380000000000202e+00 8.999320000000000874e+00 8.962580000000000879e+00 8.684630000000000294e+00 1.150509999999999922e+00 1.300650000000000084e+00 8.873780000000000001e+00 1.276980000000000004e+00 6.668689999999999785e+00 8.686149999999999594e+00 6.152260000000000062e+00 1.310159999999999991e+00 8.834410000000000096e+00 6.389059999999999739e+00 6.675290000000000390e+00 9.173389999999999489e+00 3.691429999999999989e+00 3.936729999999999841e+00 9.053900000000000503e+00 3.757839999999999847e+00 9.077299999999999258e+00 9.202139999999999986e+00 8.864839999999999165e+00 3.625399999999999956e+00 9.196189999999999642e+00 8.893520000000000536e+00 8.886919999999999931e+00 3.655619999999999870e+00 1.279640000000000111e+00 1.343779999999999974e+00 3.763580000000000148e+00 1.344330000000000025e+00 6.523039999999999949e+00 3.747879999999999878e+00 6.460280000000000022e+00 1.419159999999999977e+00 3.653090000000000170e+00 6.569539999999999935e+00 6.552669999999999995e+00 1.637420000000000098e+00 1.859969999999999901e+00 3.380959999999999965e+00 1.797639999999999905e+00 1.932120000000000060e+00 8.441979999999999151e+00 1.679859999999999909e+00 6.925309999999999633e+00 3.266570000000000196e+00 1.709529999999999994e+00 6.992490000000000094e+00 8.595689999999999387e+00 6.034169999999999590e+00 1.902649999999999952e+00 6.627699999999999703e-01 6.210410000000000430e+00 1.829790000000000028e+00 5.973460000000000214e+00 6.053079999999999572e+00 6.880169999999999675e+00 4.988199999999999856e-01 6.178740000000000343e+00 6.785129999999999661e+00 5.894020000000000259e+00 6.688679999999999737e+00 1.711149999999999949e+00 3.320289999999999964e+00 6.858830000000000204e+00 1.877520000000000078e+00 8.492369999999999308e+00 6.702270000000000394e+00 6.739010000000000389e+00 3.145779999999999799e+00 6.773679999999999701e+00 6.879660000000000331e+00 8.447319999999999496e+00 6.096989999999999910e+00 4.382769999999999833e+00 1.804529999999999967e+00 6.064379999999999882e+00 4.449659999999999727e+00 7.132760000000000211e+00 6.097439999999999749e+00 9.481569999999999609e+00 1.766259999999999941e+00 5.967220000000000191e+00 9.427210000000000534e+00 7.016490000000000116e+00 9.159340000000000259e+00 1.207719999999999905e+00 3.950089999999999879e+00 9.313269999999999271e+00 1.303230000000000111e+00 9.287150000000000460e+00 9.005559999999999121e+00 6.275070000000000370e+00 4.001850000000000129e+00 9.148630000000000706e+00 6.263630000000000031e+00 9.223290000000000433e+00 6.797039999999999971e+00 4.220410000000000217e+00 4.515179999999999971e+00 6.856480000000000352e+00 4.401860000000000106e+00 9.930289999999999395e+00 6.677920000000000300e+00 9.356059999999999377e+00 4.414659999999999584e+00 6.851849999999999774e+00 9.487920000000000798e+00 9.612740000000000506e+00 1.031570000000000098e+00 1.807460000000000067e+00 7.218200000000000172e-01 1.015770000000000062e+00 1.907850000000000046e+00 5.914659999999999584e+00 1.119050000000000100e+00 6.699209999999999887e+00 7.300400000000000222e-01 9.938399999999999457e-01 6.893880000000000230e+00 5.848589999999999733e+00 1.740520000000000067e+00 4.426300000000000345e+00 4.575179999999999580e+00 1.601739999999999942e+00 4.240540000000000198e+00 9.855840000000000600e+00 1.838999999999999968e+00 9.482799999999999230e+00 4.562439999999999607e+00 1.841050000000000075e+00 9.538119999999999266e+00 9.767099999999999227e+00 9.326799999999999535e-01 4.407269999999999577e+00 1.960040000000000004e+00 9.657799999999999718e-01 4.399709999999999788e+00 7.225259999999999572e+00 1.157389999999999919e+00 9.330840000000000245e+00 1.768029999999999990e+00 1.043150000000000022e+00 9.626749999999999474e+00 7.001459999999999795e+00 3.626549999999999940e+00 3.974299999999999944e+00 1.170369999999999910e+00 3.705080000000000151e+00 3.930870000000000086e+00 6.485800000000000232e+00