-5.883990000000000054e-01 1.355899999999999883e-01 5.691530000000000200e-01 1.971877000000000102e+00 -3.385810000000000208e-01 2.825690000000000146e-01 -4.220900000000000207e-01 -6.970700000000000507e-02 1.066762999999999906e+00 -2.288739999999999941e-01 3.230330000000000146e-01 1.226840000000000014e-01 1.330989999999999895e+00 7.920639999999999903e-01 4.745090000000000141e-01 -4.301590000000000136e-01 -2.301420000000000132e-01 -3.206720000000000126e-01 1.694587999999999983e+00 -1.062511999999999901e+00 1.277878999999999987e+00 -5.896350000000000202e-01 1.273479999999999890e-01 -9.454150000000000054e-01 -3.763679999999999803e-01 -7.048769999999999758e-01 6.041649999999999521e-01 -2.555270000000000041e-01 -1.305300000000000071e-01 1.154440000000000049e-01 -2.989800000000000235e-01 -7.602529999999999566e-01 -8.736979999999999746e-01 3.106679999999999997e-01 5.234910000000000396e-01 7.002220000000000111e-01 -1.576460999999999890e+00 8.366580000000000128e-01 -1.900390000000000135e-01 1.132382999999999917e+00 -2.933560000000000056e-01 -5.772939999999999738e-01 -7.903790000000000537e-01 2.857810000000000072e-01 -4.835570000000000146e-01 6.788370000000000237e-01 7.198899999999999744e-02 -3.427810000000000024e-01 -3.648210000000000064e-01 -3.654129999999999878e-01 -1.040213000000000054e+00 5.868619999999999948e-01 1.316070000000000018e-01 1.166821000000000108e+00 -1.427930000000000033e-01 -7.221309999999999674e-01 2.554400000000000073e-02 -4.019159999999999955e-01 1.521500000000000075e-01 3.789100000000000107e-02 -9.862400000000000333e-02 -6.334649999999999448e-01 2.037720000000000198e+00 2.905200000000000005e-01 1.192445999999999895e+00 -1.343938000000000077e+00 2.907009999999999872e-01 4.340669999999999806e-01 1.074030000000000040e+00 8.311079999999999579e-01 2.957420000000000049e-01 -1.245422000000000029e+00 1.221870999999999929e+00 5.891009999999999858e-01 -4.930320000000000258e-01 -3.008899999999999908e-01 6.777309999999999723e-01 -1.231664000000000092e+00 1.264180000000000026e-01 -4.396660000000000013e-01 -2.482779999999999987e-01 -4.165400000000000214e-01 -9.092580000000000107e-01 -4.159990000000000077e-01 -2.006292000000000186e+00 -1.375485000000000069e+00 1.551440000000000041e-01 -1.677389999999999992e-01 -7.710069999999999979e-01 -4.091060000000000252e-01 -3.884310000000000263e-01 -6.842580000000000329e-01 -9.683260000000000201e-01 7.388860000000000428e-01 -6.616680000000000339e-01 -3.815000000000000058e-01 -5.659549999999999859e-01 5.162010000000000209e-01 -3.870699999999999835e-02 1.882109999999999894e-01 1.998669999999999891e-01 7.334370000000000056e-01 -5.724650000000000016e-01 -5.419819999999999638e-01 3.898690000000000211e-01 -9.110420000000000185e-01 -1.203781999999999908e+00 3.437999999999999945e-01 -1.496679999999999955e-01 -7.052410000000000068e-01 2.891230000000000189e-01 1.584170000000000023e-01 -3.865419999999999967e-01 6.662800000000000666e-02 4.030460000000000154e-01 6.748549999999999827e-01 1.212552999999999992e+00 -1.160849999999999937e-01 3.532580000000000164e-01 -1.915899999999999895e-02 -3.433399999999999785e-01 1.116675000000000084e+00 7.030999999999999923e-03 1.384150000000000102e-01 1.649675000000000002e+00 -5.812270000000000492e-01 -9.976120000000000543e-01 -1.663270000000000026e-01 6.057240000000000402e-01 1.246939999999999993e-01 3.400779999999999914e-01 4.406169999999999809e-01 -1.424631999999999898e+00 -1.685672999999999977e+00 -1.139200999999999908e+00 -2.754949999999999899e-01 -2.419070000000000109e-01 1.127326000000000050e+00 -8.640299999999999647e-01 6.233819999999999917e-01 1.082297000000000065e+00 -1.502680000000000127e-01 1.175869000000000053e+00 8.334139999999999882e-01 4.941139999999999977e-01 7.529409999999999714e-01 -1.566168999999999922e+00 -5.722739999999999494e-01 1.773790000000000089e-01 -6.289209999999999523e-01 -5.532169999999999588e-01 2.125400000000000067e-01 -2.958859999999999824e-01 1.116899999999999976e-01 5.042900000000000160e-02 -4.057149999999999923e-01 5.431899999999999923e-02 4.055650000000000088e-01 5.432280000000000442e-01 -1.217875999999999959e+00 -1.952079999999999926e-01 3.358650000000000246e-01 4.228569999999999829e-01 1.195915999999999979e+00 -7.383619999999999628e-01 -1.251279999999999892e-01 -1.528760000000000119e-01 -1.173150000000000026e-01 6.524990000000000512e-01 -4.714180000000000037e-01 5.204379999999999562e-01 -8.846700000000000397e-02 1.489096999999999893e+00 7.225920000000000121e-01 -8.327090000000000325e-01 1.096689999999999943e+00 -8.029079999999999551e-01 6.012389999999999679e-01 -5.007070000000000132e-01 2.483720000000000094e-01 7.232910000000000172e-01 -7.996969999999999912e-01 -2.142630000000000090e-01 -5.820400000000000018e-01 1.549349999999999894e-01 -4.010009999999999963e-01 7.268609999999999793e-01 -7.319360000000000310e-01 -5.286499999999999533e-01 2.879900000000000168e-02 3.446989999999999776e-01 1.384662999999999977e+00 5.324659999999999949e-01 -2.659929999999999795e-01 -6.072149999999999492e-01 -5.437779999999999836e-01 1.066320000000000046e-01 -4.511689999999999867e-01 7.220699999999999896e-01 3.927189999999999848e-01 9.918829999999999592e-01 6.652660000000000240e-01 -3.715499999999999914e-01 2.991090000000000138e-01 4.372420000000000195e-01 4.405120000000000147e-01 4.781309999999999727e-01 -7.783369999999999456e-01 -3.553999999999999937e-01 -1.944760000000000100e-01 2.684779999999999944e-01 -6.477469999999999617e-01 1.774119999999999864e-01 4.352969999999999895e-01 4.317690000000000139e-01 -6.969000000000000368e-03 -8.549419999999999797e-01 1.002158000000000104e+00 -9.092479999999999452e-01 2.449510000000000021e-01 -4.624360000000000137e-01 -5.991670000000000051e-01 -2.977360000000000007e-01 4.657470000000000221e-01 1.700579999999999870e-01 -3.625300000000000050e-02 -4.226679999999999882e-01 6.229799999999999921e-02 3.138300000000000117e-02 4.644030000000000102e-01 3.305400000000000005e-02 7.968769999999999465e-01 -8.650630000000000264e-01 -3.065060000000000007e-01 -4.005290000000000239e-01 -3.762349999999999861e-01 -8.870500000000000052e-01 8.333859999999999602e-01 -3.463030000000000275e-01 -5.868700000000000028e-01 -4.654000000000000151e-03 4.567330000000000001e-01 3.102480000000000238e-01 1.153299999999999985e-02 9.364069999999999894e-01 7.830899999999999528e-01 8.011749999999999705e-01 -6.190290000000000514e-01 2.252999999999999794e-03 1.274721999999999911e+00 -1.901019999999999932e-01 -7.654600000000000293e-02 3.520980000000000221e-01 7.697800000000000475e-02 -4.583000000000000268e-02 -1.102380000000000027e-01 -8.259999999999999565e-01 1.512350000000000083e-01 -7.795830000000000259e-01 3.307749999999999857e-01 3.246490000000000209e-01 7.141000000000000125e-02 1.560400000000000120e-01 -3.626150000000000206e-01 6.136249999999999760e-01 -2.061000000000000054e-01 4.356909999999999950e-01 -8.746490000000000098e-01 -1.048008000000000051e+00 -5.830840000000000467e-01 2.229099999999999970e-01 -2.466879999999999906e-01 -4.959950000000000192e-01 3.165350000000000108e-01 8.077029999999999488e-01 9.553070000000000173e-01 -1.176169999999999993e-01 -6.856780000000000097e-01 -4.239149999999999863e-01 3.199509999999999854e-01 7.031830000000000025e-01 -2.468589999999999951e-01
-7.697110000000000340e-01 -2.929000000000000006e-02 1.003759000000000068e+00 -2.246299999999999963e-01 -1.067221999999999893e+00 -3.683600000000000207e-01 -3.115800000000000236e-01 -1.533079999999999998e-01 -2.286479999999999901e-01 -9.806759999999999922e-01 -4.058550000000000213e-01 -2.213569999999999982e-01 9.763319999999999776e-01 -1.961930000000000063e-01 1.335822999999999983e+00 -5.804949999999999832e-01 8.954900000000000360e-02 6.788049999999999917e-01 8.592500000000000138e-02 -1.045531999999999906e+00 -9.653939999999999744e-01 1.400211000000000094e+00 -4.220769999999999800e-01 -6.178430000000000311e-01 2.149760000000000004e-01 -9.101199999999999568e-02 -1.271288999999999891e+00 4.530489999999999795e-01 1.181942999999999966e+00 4.415379999999999860e-01 2.517360000000000153e-01 6.043799999999999867e-02 -5.086999999999999855e-02 8.634560000000000013e-01 2.864090000000000247e-01 2.976509999999999989e-01 2.999169999999999892e-01 -9.623329999999999940e-01 3.377200000000000341e-02 1.268007000000000106e+00 -1.320619999999999905e+00 1.218167000000000000e+00 3.495229999999999726e-01 -2.109817000000000053e+00 1.365099999999999925e-01 1.259344000000000019e+00 -9.981000000000000288e-03 -1.760869000000000018e+00 -4.560509999999999842e-01 1.361944999999999961e+00 -4.046290000000000164e-01 7.726380000000000470e-01 1.147364000000000051e+00 5.015600000000000058e-01 -5.930609999999999493e-01 1.281392000000000087e+00 6.200769999999999893e-01 6.287439999999999696e-01 8.997669999999999835e-01 4.841630000000000100e-01 3.903670000000000195e-01 1.915719999999999923e-01 -5.289310000000000400e-01 -8.740139999999999576e-01 4.328049999999999953e-01 -1.808600000000000138e-02 7.033869999999999845e-01 -8.937060000000000004e-01 4.089499999999999802e-01 -8.538500000000000256e-02 -9.659130000000000216e-01 1.831498000000000070e+00 -7.544290000000000163e-01 -5.306100000000000261e-01 1.191168000000000005e+00 8.305209999999999537e-01 -5.528800000000000381e-01 8.826469999999999594e-01 -2.092559999999999976e-01 1.760970000000000035e-01 -8.643800000000000372e-01 9.405280000000000307e-01 1.299085000000000045e+00 -1.804379999999999873e-01 -1.131118999999999986e+00 -1.494900000000000048e-02 -1.019900000000000029e+00 1.237759999999999971e-01 1.550818999999999948e+00 1.081666000000000016e+00 -1.338533999999999891e+00 5.682279999999999553e-01 -1.447890000000000010e-01 -1.302828000000000097e+00 -1.274969999999999992e-01 -6.894679999999999698e-01 -3.643839999999999857e-01 -2.579899999999999902e-02 -5.881800000000000223e-02 -2.062849999999999961e-01 9.817190000000000083e-01 -1.174430000000000085e+00 -1.363729999999999942e-01 -4.154519999999999880e-01 2.295800000000000063e-01 -9.663399999999999768e-01 -3.367140000000000133e-01 1.419199999999999906e-01 -2.909550000000000192e-01 6.441839999999999788e-01 -4.181329999999999769e-01 1.241320000000000062e-01 5.532449999999999868e-01 7.734849999999999781e-01 -1.760869999999999935e-01 5.696710000000000385e-01 -3.681590000000000140e-01 6.803639999999999688e-01 1.697991999999999946e+00 -2.599659999999999749e-01 8.244660000000000322e-01 5.336629999999999985e-01 -1.209099999999999932e-02 8.830090000000000439e-01 -8.878749999999999698e-01 -7.270250000000000323e-01 3.193909999999999805e-01 -4.174220000000000153e-01 -8.113810000000000189e-01 8.079730000000000523e-01 6.080539999999999834e-01 -2.206940000000000013e-01 -9.205830000000000402e-01 -4.513340000000000130e-01 -1.992450000000000054e-01 -3.152679999999999927e-01 7.225669999999999593e-01 6.382349999999999968e-01 4.088970000000000105e-01 5.591730000000000311e-01 -9.477820000000000134e-01 6.116139999999999910e-01 -1.555040000000000033e-01 -1.121056000000000052e+00 -5.034089999999999954e-01 1.752779999999999894e-01 5.050229999999999997e-01 3.331000000000000072e-01 -5.567220000000000502e-01 -3.794719999999999760e-01 -1.581496999999999931e+00 4.482189999999999785e-01 -2.687399999999999789e-01 -1.237850000000000061e-01 5.039369999999999683e-01 -3.971299999999999830e-01 2.557180000000000009e-01 -5.213600000000000179e-02 -1.101653999999999911e+00 -5.449110000000000342e-01 -7.295449999999999990e-01 -2.661450000000000204e-01 6.772799999999999931e-01 7.051060000000000105e-01 -6.802970000000000406e-01 4.747910000000000186e-01 -7.375099999999999711e-02 3.519499999999999712e-02 -1.734020000000000006e-01 6.449150000000000160e-01 -3.384139999999999926e-01 2.322440000000000060e-01 -6.539960000000000218e-01 -9.994500000000000606e-02 -4.583709999999999729e-01 1.368340000000000112e-01 -6.498930000000000540e-01 5.476480000000000237e-01 -2.535060000000000091e-01 -2.809039999999999870e-01 -3.371299999999999852e-01 -6.580400000000000138e-02 8.454299999999999315e-02 6.410699999999999732e-02 7.457899999999999530e-01 1.690540000000000098e-01 -2.004630000000000134e+00 1.342889999999999917e-01 2.896969999999999823e-01 -3.198550000000000004e-01 -3.616300000000000070e-02 5.572829999999999728e-01 6.251560000000000450e-01 -4.827839999999999909e-01 9.762709999999999999e-01 -1.054504000000000108e+00 -2.826529999999999876e-01 -4.620500000000000163e-01 8.493819999999999704e-01 -1.332990000000000008e-01 -1.842949999999999866e-01 -4.857980000000000076e-01 -3.001650000000000151e-01 5.881399999999999822e-02 -4.182649999999999979e-01 -2.992480000000000140e-01 8.849270000000000191e-01 1.221638000000000002e+00 4.210189999999999766e-01 4.172690000000000010e-01 5.722650000000000237e-01 -5.297899999999999832e-01 2.037420000000000064e-01 -2.858760000000000190e-01 -1.517340000000000078e-01 5.912730000000000485e-01 -3.668279999999999874e-01 4.631000000000000116e-01 -1.264690000000000092e+00 1.293789999999999940e-01 -3.963880000000000181e-01 6.123900000000000177e-02 -1.594019999999999881e-01 7.289000000000000340e-03 1.994402999999999926e+00 -9.972050000000000081e-01 1.875900000000000137e-02 4.950249999999999928e-01 -7.332469999999999821e-01 -7.331400000000000416e-02 1.228973000000000093e+00 -2.722069999999999768e-01 1.217789999999999984e-01 -5.835759999999999836e-01 -5.932190000000000518e-01 -5.241419999999999968e-01 -7.529559999999999587e-01 2.356199999999999961e-01 -5.508049999999999891e-01 -1.198339999999999961e-01 1.296319999999999917e+00 7.577239999999999531e-01 -3.250339999999999896e-01 -1.165619999999999989e-01 3.951100000000000168e-01 4.749880000000000213e-01 6.321689999999999809e-01 2.912310000000000176e-01 3.648839999999999861e-01 7.658080000000000442e-01 2.302190000000000070e-01 -6.951300000000000534e-02 -1.514210000000000000e-01 -4.927590000000000026e-01 7.368700000000000250e-02 -8.905750000000000055e-01 -9.468079999999999830e-01 2.385919999999999985e-01 5.655139999999999612e-01 -2.559009999999999896e-01 6.726539999999999742e-01 7.283910000000000107e-01 -2.109739999999999949e-01 4.059940000000000215e-01 5.342899999999999733e-02 1.980169999999999986e-01 -3.383519999999999861e-01 -7.542440000000000255e-01 -5.590739999999999599e-01 3.466250000000000164e-01 1.999930000000000041e-01 -1.700419999999999987e-01 -1.166527000000000092e+00 5.335640000000000382e-01 -9.804499999999999327e-02 6.829469999999999708e-01 -2.041250000000000009e-01 -8.004200000000000204e-01 -5.003279999999999950e-01 -9.472869999999999902e-01 -5.274339999999999584e-01 1.397039999999999949e-01
-5.584320000000000395e-01 3.529700000000000060e-01 -1.059269000000000016e+00 -1.216398000000000090e+00 -5.130980000000000540e-01 1.718447999999999976e+00 -1.486139999999999961e-01 -1.536769000000000052e+00 -1.613928000000000029e+00 -1.154044999999999987e+00 1.343542999999999932e+00 6.009670000000000289e-01 -1.728804000000000007e+00 1.787580000000000002e-01 -6.697610000000000507e-01 1.133920999999999957e+00 5.848619999999999930e-01 2.552400000000000155e-02 -4.714019999999999877e-01 -4.903000000000000240e-03 1.596740000000000104e-01 2.083700000000000135e-02 -1.573599999999999999e-02 -7.085369999999999724e-01 -4.055010000000000003e-01 1.346190999999999915e+00 -1.195599999999999996e+00 6.637229999999999519e-01 6.734750000000000458e-01 7.424159999999999648e-01 5.065460000000000518e-01 4.501229999999999953e-01 -6.364959999999999507e-01 -5.508189999999999475e-01 2.636399999999999855e-02 -6.915390000000000148e-01 8.925999999999999907e-03 6.956040000000000001e-01 8.840919999999999890e-01 4.875050000000000217e-01 3.029379999999999851e-01 -4.980510000000000215e-01 8.832800000000000373e-02 4.405120000000000147e-01 2.762330000000000063e-01 -7.183519999999999905e-01 1.224230000000000040e-01 1.486202999999999941e+00 7.972820000000000462e-01 -2.978250000000000064e-01 -1.463000000000000134e-01 -6.120459999999999789e-01 1.219349000000000016e+00 5.023619999999999752e-01 1.468472000000000000e+00 -7.674769999999999648e-01 -5.010550000000000281e-01 -1.258189999999999920e+00 4.556390000000000162e-01 -2.854260000000000130e-01 -3.360710000000000086e-01 3.699979999999999936e-01 6.427329999999999988e-01 5.306180000000000341e-01 -3.243550000000000044e-01 9.384329999999999616e-01 -3.533720000000000194e-01 -1.667140000000000011e-01 -1.157324000000000019e+00 6.154739999999999656e-01 -4.361630000000000229e-01 6.670299999999999840e-02 4.975870000000000015e-01 -3.320429999999999771e-01 -1.100349999999999939e+00 1.075841000000000047e+00 -8.669799999999999729e-02 -4.372530000000000028e-01 -3.195509999999999740e-01 -1.775150999999999923e+00 -2.367730000000000112e-01 -4.573470000000000035e-01 -1.070936000000000110e+00 1.868862000000000023e+00 -3.331169999999999964e-01 3.992339999999999778e-01 -5.961090000000000000e-01 -2.073149999999999993e-01 -5.587370000000000392e-01 2.222200000000000009e-01 5.308600000000000124e-02 7.513560000000000239e-01 3.196350000000000025e-01 6.728539999999999521e-01 -2.662999999999999812e-01 6.377369999999999983e-01 3.392560000000000020e-01 7.005090000000000483e-01 1.837799999999999850e-02 -2.093550000000000133e-01 3.402029999999999776e-01 4.111580000000000235e-01 -5.770739999999999759e-01 -6.194739999999999691e-01 -6.856630000000000225e-01 -2.003199999999999981e-01 5.767900000000000110e-02 8.997119999999999562e-01 -6.262839999999999518e-01 -8.742199999999999971e-01 1.074740000000000001e-01 -1.573029999999999984e-01 8.097400000000000431e-02 3.616150000000000198e-01 -1.002763000000000071e+00 6.843780000000000419e-01 7.053030000000000133e-01 6.575599999999999501e-02 -2.101820000000000077e-01 -3.739850000000000119e-01 -7.735959999999999503e-01 9.497069999999999679e-01 2.282589999999999897e-01 5.537199999999999900e-01 -1.880850000000000022e-01 8.384789999999999743e-01 -4.013160000000000061e-01 -3.036000000000000157e-02 -1.223010000000000069e-01 5.141529999999999712e-01 -2.616689999999999849e-01 4.776009999999999978e-01 -4.818649999999999878e-01 1.133817999999999993e+00 4.420979999999999910e-01 -5.221040000000000125e-01 -6.890340000000000353e-01 -1.638580000000000036e-01 -5.954199999999999493e-01 -1.724150000000000127e-01 3.265589999999999882e-01 -7.833470000000000155e-01 -3.672839999999999994e-01 -3.860210000000000030e-01 -9.452399999999999691e-02 5.867219999999999658e-01 -3.923570000000000113e-01 9.629000000000000406e-03 6.401320000000000343e-01 -7.259999999999999787e-02 8.176879999999999704e-01 7.946799999999999697e-02 -1.547759999999999969e-01 5.419209999999999861e-01 -1.105893999999999933e+00 -3.429900000000000310e-02 2.161150000000000015e-01 2.102150000000000130e-01 -4.640870000000000273e-01 9.930149999999999810e-01 1.006885000000000030e+00 -2.098542000000000129e+00 -6.657419999999999449e-01 1.361799999999999955e-01 5.781239999999999712e-01 -1.150410000000000044e-01 -6.655339999999999590e-01 -8.677970000000000406e-01 6.434029999999999472e-01 -4.312579999999999747e-01 3.317209999999999881e-01 -4.609260000000000024e-01 -4.582899999999999752e-01 -7.626460000000000461e-01 2.111949999999999938e-01 -3.532500000000000084e-01 8.161890000000000533e-01 -6.460749999999999549e-01 4.123069999999999791e-01 -7.110649999999999471e-01 1.702649999999999997e-01 -2.731750000000000012e-01 -2.114219999999999988e-01 -2.753099999999999992e-02 3.622330000000000272e-01 7.682520000000000460e-01 2.038629999999999887e-01 -4.639579999999999815e-01 -7.233589999999999742e-01 7.942110000000000003e-01 -7.829369999999999941e-01 4.984999999999999848e-03 2.018999999999999961e-03 -1.607280000000000098e-01 -4.777200000000000196e-02 1.055687000000000042e+00 -2.679420000000000135e-01 2.926770000000000205e-01 -1.096659999999999996e-01 6.682599999999999651e-01 3.391250000000000098e-01 -7.293290000000000051e-01 -9.009439999999999671e-01 -1.166730000000000045e+00 7.628380000000000161e-01 7.336559999999999748e-01 -1.559879999999999878e-01 4.051190000000000069e-01 -5.681880000000000264e-01 8.825479999999999992e-01 3.891729999999999912e-01 6.396699999999999608e-02 -5.866199999999999887e-02 -4.226409999999999889e-01 -7.439999999999999392e-02 7.286810000000000231e-01 -3.145419999999999883e-01 3.099180000000000268e-01 -8.821350000000000025e-01 -1.961070000000000035e-01 5.123630000000000129e-01 1.656414000000000053e+00 6.390050000000000452e-01 -6.033509999999999707e-01 5.781570000000000320e-01 -5.154020000000000268e-01 -2.147360000000000102e-01 3.206939999999999791e-01 -1.239076000000000066e+00 -1.782839999999999980e-01 5.619929999999999648e-01 -2.104060000000000097e-01 8.951000000000000623e-03 -4.361590000000000189e-01 1.547808999999999990e+00 8.863020000000000342e-01 -1.072020000000000056e-01 -9.599220000000000530e-01 -4.548889999999999878e-01 -2.163519999999999888e-01 3.277840000000000198e-01 6.279000000000000137e-01 3.330509999999999859e-01 1.029398999999999953e+00 1.456279000000000101e+00 -6.314319999999999933e-01 1.475765999999999911e+00 -4.569700000000000151e-02 -8.148300000000000542e-01 -2.334189999999999876e-01 -2.233900000000000052e-01 -7.811799999999999855e-01 -6.010809999999999764e-01 4.392759999999999998e-01 1.356370000000000076e-01 7.406530000000000058e-01 -3.825209999999999999e-01 -7.349999999999999589e-02 5.525309999999999944e-01 2.822540000000000049e-01 7.145660000000000345e-01 8.521640000000000326e-01 -5.111940000000000373e-01 7.674870000000000303e-01 3.697139999999999871e-01 -5.711249999999999938e-01 1.205109999999999931e-01 -4.204000000000000271e-03 -3.496130000000000071e-01 -1.902030000000000109e-01 -1.663509999999999989e-01 1.243989999999999957e-01 -2.651410000000000156e-01 5.779729999999999590e-01 -4.170050000000000145e-01 -3.220540000000000069e-01 1.186669999999999947e-01 -6.009109999999999729e-01 3.528410000000000157e-01 -6.693799999999999750e-01 -5.834359999999999546e-01 -2.846389999999999754e-01
-7.464279999999999804e-01 5.624200000000000033e-02 -2.841090000000000004e-01 1.335396000000000027e+00 -1.221089999999999953e-01 8.234500000000000153e-01 1.373979999999999924e-01 7.105730000000000102e-01 -2.007859999999999923e-01 1.398849999999999927e+00 1.368049000000000071e+00 -3.519590000000000218e-01 9.295400000000000329e-01 -1.550172000000000105e+00 6.814320000000000377e-01 -7.085129999999999484e-01 6.703120000000000189e-01 4.571180000000000243e-01 -5.169930000000000359e-01 9.330680000000000085e-01 8.880639999999999645e-01 -8.472979999999999956e-01 3.331959999999999922e-01 1.167686999999999919e+00 -7.103800000000000392e-02 6.344819999999999904e-01 3.968439999999999745e-01 -1.513066999999999940e+00 -9.517879999999999674e-01 5.352729999999999988e-01 7.349759999999999627e-01 -2.350309999999999899e-01 -5.935899999999999510e-01 -1.605139999999999900e-01 8.554799999999999904e-02 -8.799940000000000540e-01 1.109453000000000022e+00 9.266839999999999522e-01 5.414029999999999676e-01 1.506775999999999893e+00 4.358279999999999932e-01 6.734580000000000011e-01 -2.600040000000000129e-01 -7.829479999999999773e-01 3.131519999999999859e-01 3.431350000000000233e-01 -9.389859999999999873e-01 -1.901569999999999927e-01 1.998010000000000064e-01 7.349069999999999769e-01 -2.027547000000000210e+00 1.124317999999999929e+00 -2.849340000000000206e-01 -7.308890000000000109e-01 1.222501000000000060e+00 -2.537479999999999736e-01 -1.735549999999999871e-01 -7.494269999999999543e-01 -5.819210000000000216e-01 9.369849999999999568e-01 5.125480000000000036e-01 -4.814309999999999978e-01 1.219890000000000002e-01 2.008469999999999978e-01 -1.222590000000000066e-01 2.704400000000000137e-01 -1.762810999999999906e+00 6.720890000000000475e-01 7.421210000000000306e-01 -2.691839999999999788e-01 -3.911810000000000009e-01 -5.850370000000000292e-01 7.332480000000000109e-01 -9.348480000000000123e-01 -1.052759999999999918e+00 -1.333650000000000002e+00 9.379629999999999912e-01 -2.334894999999999943e+00 -4.968549999999999911e-01 1.025660999999999934e+00 -1.097043999999999908e+00 -6.174579999999999513e-01 4.743769999999999931e-01 1.344770000000000132e-01 1.038437000000000054e+00 -1.443689999999999973e-01 -1.451611999999999902e+00 7.537490000000000023e-01 -1.146063000000000054e+00 1.349312999999999985e+00 6.786940000000000195e-01 -1.796409999999999951e-01 -1.011028999999999956e+00 5.627010000000000067e-01 1.254170000000000007e-01 1.551109999999999989e-01 2.556530000000000191e-01 1.388737000000000110e+00 7.121939999999999937e-01 4.537689999999999779e-01 4.818990000000000218e-01 -8.627340000000000009e-01 1.918130000000000113e-01 5.061890000000000001e-01 1.255992999999999915e+00 3.295599999999999918e-02 -5.548619999999999663e-01 4.423159999999999870e-01 3.491000000000000214e-01 1.248900000000000010e-01 7.515800000000000258e-01 6.188420000000000032e-01 -4.328110000000000013e-01 -4.511629999999999807e-01 -5.921279999999999877e-01 6.143070000000000475e-01 2.654889999999999750e-01 -1.984760000000000135e-01 -1.157734999999999959e+00 5.306530000000000413e-01 5.341000000000000261e-03 -9.822500000000000675e-02 1.023500999999999994e+00 -4.865320000000000200e-01 4.826639999999999819e-01 7.704210000000000225e-01 -6.407749999999999835e-01 3.346060000000000145e-01 5.633599999999999719e-02 6.456479999999999997e-01 -4.242480000000000140e-01 -4.061640000000000250e-01 6.853289999999999660e-01 -1.253350000000000020e-01 1.288910000000000056e-01 -3.954030000000000045e-01 -4.474049999999999971e-01 -6.782709999999999573e-01 6.796309999999999851e-01 7.044740000000000446e-01 -1.318189999999999917e-01 -5.579520000000000035e-01 -7.478420000000000067e-01 -5.678469999999999906e-01 4.022709999999999897e-01 8.554410000000000069e-01 -9.415010000000000323e-01 9.335579999999999989e-01 1.635040000000000104e-01 3.244730000000000114e-01 -5.894989999999999952e-01 -3.919259999999999966e-01 7.504800000000000360e-02 -2.890099999999999891e-01 -1.200000000000000030e-04 -2.170090000000000074e-01 3.794569999999999887e-01 -2.232409999999999950e-01 -2.181599999999999928e-01 -2.694699999999999873e-01 -5.902979999999999894e-01 6.023030000000000328e-01 -7.576439999999999841e-01 3.958500000000000213e-02 -8.468520000000000492e-01 6.181099999999999789e-02 -9.277520000000000211e-01 6.985829999999999540e-01 3.664290000000000047e-01 -1.462140000000000106e-01 -4.264530000000000265e-01 8.316199999999999981e-02 2.174500000000000044e-01 6.747319999999999984e-01 4.667839999999999767e-01 -1.590090000000000114e-01 5.550969999999999516e-01 -4.358099999999999752e-01 -5.690910000000000135e-01 -5.896559999999999580e-01 1.900409999999999877e-01 -3.229319999999999968e-01 -4.598240000000000105e-01 -1.490491000000000010e+00 -6.398629999999999596e-01 3.901560000000000028e-01 6.433440000000000270e-01 1.231589999999999963e+00 5.213449999999999473e-01 -4.483340000000000103e-01 6.589190000000000325e-01 -2.946000000000000008e-02 7.384709999999999885e-01 2.318359999999999865e-01 2.683969999999999967e-01 -7.338059999999999583e-01 -1.114200000000000051e-01 -5.609600000000000003e-02 3.619009999999999727e-01 6.532569999999999766e-01 6.631299999999999972e-01 -1.534520000000000051e-01 5.093879999999999519e-01 2.960690000000000266e-01 -1.563749999999999862e-01 -4.411559999999999926e-01 9.267469999999999875e-01 -2.436329999999999885e-01 -5.369040000000000479e-01 5.512679999999999803e-01 -7.094009999999999483e-01 -7.293279999999999763e-01 -6.790580000000000505e-01 6.526309999999999611e-01 4.309390000000000165e-01 -1.656030000000000002e-01 -5.504799999999999693e-01 2.513960000000000083e-01 1.259490000000000054e-01 -7.634109999999999507e-01 -7.913399999999999601e-02 -5.986219999999999875e-01 9.180490000000000039e-01 -3.156340000000000257e-01 -9.111900000000000555e-02 3.788199999999999901e-01 6.224570000000000380e-01 8.498719999999999608e-01 -6.855430000000000135e-01 4.779630000000000267e-01 -2.778470000000000106e-01 -4.801110000000000100e-01 2.565359999999999863e-01 -1.464020000000000099e+00 -6.335399999999999365e-02 -1.739989999999999870e-01 1.401129999999999876e-01 -1.250199000000000060e+00 -3.680280000000000218e-01 1.082567000000000057e+00 2.857620000000000160e-01 4.077540000000000053e-01 -1.773019999999999874e-01 -3.461589999999999945e-01 -2.065900000000000028e-02 2.047360000000000013e-01 -9.700400000000000689e-02 1.778780000000000083e-01 -1.192803999999999975e+00 2.274809999999999888e-01 2.698380000000000223e-01 1.993920000000000137e-01 -2.497459999999999958e-01 2.177719999999999934e-01 -2.338499999999999954e-02 4.374870000000000148e-01 1.188034000000000034e+00 -1.389694999999999903e+00 -1.929919999999999969e-01 2.140600000000000142e-02 -3.098029999999999951e-01 -1.430360000000000076e+00 2.297329999999999928e-01 2.601080000000000059e-01 -2.563409999999999855e-01 -6.855520000000000502e-01 2.892230000000000079e-01 -7.585400000000000476e-02 1.352859999999999896e-01 -5.165239999999999831e-01 -2.809030000000000138e-01 -3.567130000000000023e-01 1.657309999999999894e-01 2.899869999999999948e-01 -1.869888999999999912e+00 1.835034000000000054e+00 4.598900000000000210e-02 -1.076556000000000068e+00 -7.279440000000000355e-01 -3.799930000000000252e-01 -1.848140000000000061e-01 -3.640639999999999987e-01