1.040429412900000017e+01 0.000000000000000000e+00 0.000000000000000000e+00 -2.410141299999999862e-02 1.081776185000000012e+01 0.000000000000000000e+00 2.160653499999999963e-02 -2.254054200000000022e-02 1.037445458000000009e+01
1.031146707000000085e+01 0.000000000000000000e+00 0.000000000000000000e+00 -2.388637999999999872e-02 1.072124583399999942e+01 0.000000000000000000e+00 2.141376099999999991e-02 -2.233943600000000071e-02 1.028189374899999997e+01
1.033869544699999921e+01 0.000000000000000000e+00 0.000000000000000000e+00 2.398422999999999874e-02 1.074949739800000081e+01 0.000000000000000000e+00 2.149326600000000045e-02 2.229591599999999896e-02 1.030906037299999944e+01
1.037687124500000024e+01 0.000000000000000000e+00 0.000000000000000000e+00 -2.403788800000000031e-02 1.078924917800000038e+01 0.000000000000000000e+00 2.154958599999999905e-02 -2.248113200000000089e-02 1.034711034500000082e+01
1.026534362099999953e+01 0.000000000000000000e+00 0.000000000000000000e+00 2.381406499999999885e-02 1.067323098099999967e+01 0.000000000000000000e+00 2.134077399999999985e-02 2.213772899999999835e-02 1.023591880400000065e+01
1.046243295899999914e+01 0.000000000000000000e+00 0.000000000000000000e+00 -2.423609100000000127e-02 1.087821112299999982e+01 0.000000000000000000e+00 2.172727099999999939e-02 -2.266649800000000020e-02 1.043242666799999974e+01
1.044215683200000022e+01 0.000000000000000000e+00 0.000000000000000000e+00 2.422424499999999842e-02 1.085706975999999990e+01 0.000000000000000000e+00 2.170835299999999968e-02 2.251903499999999975e-02 1.041222519399999946e+01
1.013836778299999963e+01 0.000000000000000000e+00 0.000000000000000000e+00 -2.348539800000000108e-02 1.054126756299999990e+01 0.000000000000000000e+00 2.105428700000000139e-02 -2.196442200000000081e-02 1.010929091100000043e+01
1.029590571099999963e+01 0.000000000000000000e+00 0.000000000000000000e+00 -2.385033300000000134e-02 1.070506606400000038e+01 0.000000000000000000e+00 2.138144499999999892e-02 -2.230572299999999952e-02 1.026637702000000019e+01
1.026686436900000032e+01 0.000000000000000000e+00 0.000000000000000000e+00 2.381759300000000149e-02 1.067481215499999969e+01 0.000000000000000000e+00 2.134393500000000138e-02 2.214100800000000022e-02 1.023743519399999968e+01
1.024476661099999930e+01 0.000000000000000000e+00 0.000000000000000000e+00 2.376632899999999923e-02 1.065183635500000037e+01 0.000000000000000000e+00 2.129799599999999959e-02 2.209335399999999908e-02 1.021540077699999927e+01
1.031911179199999928e+01 0.000000000000000000e+00 0.000000000000000000e+00 -2.390408899999999989e-02 1.072919435700000079e+01 0.000000000000000000e+00 2.142963700000000138e-02 -2.235599799999999845e-02 1.028951654599999976e+01
1.043370389400000064e+01 0.000000000000000000e+00 0.000000000000000000e+00 2.420463600000000159e-02 1.084828094899999940e+01 0.000000000000000000e+00 2.169077999999999978e-02 2.250080600000000167e-02 1.040379648500000087e+01
1.019717847299999924e+01 0.000000000000000000e+00 0.000000000000000000e+00 -2.362163200000000005e-02 1.060241539599999960e+01 0.000000000000000000e+00 2.117641899999999841e-02 -2.209183300000000169e-02 1.016793293199999937e+01
1.036583090499999926e+01 0.000000000000000000e+00 0.000000000000000000e+00 -2.401231300000000041e-02 1.077777009300000088e+01 0.000000000000000000e+00 2.152665800000000060e-02 -2.245721300000000017e-02 1.033610166899999960e+01
1.028599975400000055e+01 0.000000000000000000e+00 0.000000000000000000e+00 -2.382738599999999901e-02 1.069476644400000076e+01 0.000000000000000000e+00 2.136087299999999897e-02 -2.228426199999999913e-02 1.025649947299999987e+01
1.029064741800000071e+01 0.000000000000000000e+00 0.000000000000000000e+00 -2.383815200000000134e-02 1.069959880599999913e+01 0.000000000000000000e+00 2.137052500000000133e-02 -2.229433100000000056e-02 1.026113380700000022e+01
1.033848429600000074e+01 0.000000000000000000e+00 0.000000000000000000e+00 2.398374099999999939e-02 1.074927785699999916e+01 0.000000000000000000e+00 2.149282699999999907e-02 2.229545999999999958e-02 1.030884982699999952e+01
1.045269696999999987e+01 0.000000000000000000e+00 0.000000000000000000e+00 2.424869699999999961e-02 1.086802870400000032e+01 0.000000000000000000e+00 2.173026499999999861e-02 2.254176600000000127e-02 1.042273511900000038e+01
1.008903312400000019e+01 0.000000000000000000e+00 0.000000000000000000e+00 2.340505099999999963e-02 1.048991488999999966e+01 0.000000000000000000e+00 2.097423899999999869e-02 2.175750599999999937e-02 1.006011368799999950e+01
1.018394237799999935e+01 0.000000000000000000e+00 0.000000000000000000e+00 2.362522599999999917e-02 1.058859530700000029e+01 0.000000000000000000e+00 2.117154799999999837e-02 2.196218299999999971e-02 1.015475089199999914e+01
1.021748420099999954e+01 0.000000000000000000e+00 0.000000000000000000e+00 -2.366866999999999929e-02 1.062352807599999949e+01 0.000000000000000000e+00 2.121858800000000003e-02 -2.213582500000000133e-02 1.018818042400000046e+01
1.051199352399999931e+01 0.000000000000000000e+00 0.000000000000000000e+00 -2.435089699999999982e-02 1.092974122999999942e+01 0.000000000000000000e+00 2.183019300000000121e-02 -2.277386899999999867e-02 1.048184509300000045e+01
1.038628405599999915e+01 0.000000000000000000e+00 0.000000000000000000e+00 2.409462899999999935e-02 1.079897691300000062e+01 0.000000000000000000e+00 2.159219899999999942e-02 2.239854299999999993e-02 1.035651257299999983e+01
1.048865942099999948e+01 0.000000000000000000e+00 0.000000000000000000e+00 2.433212400000000011e-02 1.090542010200000078e+01 0.000000000000000000e+00 2.180502800000000060e-02 2.261932100000000126e-02 1.045859448699999916e+01
1.024419945400000032e+01 0.000000000000000000e+00 0.000000000000000000e+00 -2.373055599999999987e-02 1.065130499500000028e+01 0.000000000000000000e+00 2.127406700000000067e-02 -2.219370299999999865e-02 1.021481905599999962e+01
1.040703952500000007e+01 0.000000000000000000e+00 0.000000000000000000e+00 2.414277800000000015e-02 1.082055708799999927e+01 0.000000000000000000e+00 2.163534799999999869e-02 2.244330300000000125e-02 1.037720854800000048e+01
1.036374583599999966e+01 0.000000000000000000e+00 0.000000000000000000e+00 -2.400748299999999960e-02 1.077560216400000037e+01 0.000000000000000000e+00 2.152232800000000029e-02 -2.245269600000000115e-02 1.033402257999999918e+01
1.025785155700000040e+01 0.000000000000000000e+00 0.000000000000000000e+00 2.379668500000000145e-02 1.066544122500000036e+01 0.000000000000000000e+00 2.132519800000000007e-02 2.212157199999999907e-02 1.022844821600000031e+01
1.019938959999999994e+01 0.000000000000000000e+00 0.000000000000000000e+00 2.366106200000000007e-02 1.060465631599999980e+01 0.000000000000000000e+00 2.120366099999999865e-02 2.199549599999999980e-02 1.017015383500000070e+01
1.045188383900000062e+01 0.000000000000000000e+00 0.000000000000000000e+00 -2.421165399999999912e-02 1.086724277899999969e+01 0.000000000000000000e+00 2.170536400000000130e-02 -2.264364400000000097e-02 1.042190780199999978e+01
1.034717660599999967e+01 0.000000000000000000e+00 0.000000000000000000e+00 -2.396910099999999960e-02 1.075837446999999969e+01 0.000000000000000000e+00 2.148791900000000116e-02 -2.241679900000000114e-02 1.031750086999999994e+01
1.044636018699999980e+01 0.000000000000000000e+00 0.000000000000000000e+00 2.423399600000000070e-02 1.086144013300000033e+01 0.000000000000000000e+00 2.171709200000000034e-02 2.252809999999999882e-02 1.041641650000000041e+01
1.032678111499999929e+01 0.000000000000000000e+00 0.000000000000000000e+00 -2.392185499999999881e-02 1.073716846099999955e+01 0.000000000000000000e+00 2.144556400000000029e-02 -2.237261299999999953e-02 1.029716387400000066e+01
1.041160598699999973e+01 0.000000000000000000e+00 0.000000000000000000e+00 2.415337199999999934e-02 1.082530499499999976e+01 0.000000000000000000e+00 2.164484100000000147e-02 2.245315100000000105e-02 1.038176192000000064e+01
1.039753193199999970e+01 0.000000000000000000e+00 0.000000000000000000e+00 2.412072200000000069e-02 1.081067171599999988e+01 0.000000000000000000e+00 2.161558200000000124e-02 2.242279999999999968e-02 1.036772820800000083e+01
1.034464673799999979e+01 0.000000000000000000e+00 0.000000000000000000e+00 -2.396324099999999971e-02 1.075574406500000002e+01 0.000000000000000000e+00 2.148266500000000148e-02 -2.241131799999999952e-02 1.031497825800000001e+01
1.041161843399999931e+01 0.000000000000000000e+00 0.000000000000000000e+00 2.415340100000000143e-02 1.082531793699999945e+01 0.000000000000000000e+00 2.164486700000000166e-02 2.245317800000000072e-02 1.038177433200000088e+01
1.047791180799999999e+01 0.000000000000000000e+00 0.000000000000000000e+00 -2.427194699999999858e-02 1.089430510300000066e+01 0.000000000000000000e+00 2.175941600000000017e-02 -2.270003199999999846e-02 1.044786112299999914e+01
1.011542743100000052e+01 0.000000000000000000e+00 0.000000000000000000e+00 -2.343225700000000147e-02 1.051741555899999980e+01 0.000000000000000000e+00 2.100664699999999982e-02 -2.191472300000000054e-02 1.008641635200000053e+01
1.048012556099999948e+01 0.000000000000000000e+00 0.000000000000000000e+00 -2.427707499999999866e-02 1.089660683099999972e+01 0.000000000000000000e+00 2.176401299999999872e-02 -2.270482799999999982e-02 1.045006852700000088e+01
1.036183196900000070e+01 0.000000000000000000e+00 0.000000000000000000e+00 -2.400305000000000147e-02 1.077361223900000020e+01 0.000000000000000000e+00 2.151835399999999995e-02 -2.244855000000000114e-02 1.033211420099999955e+01
1.054367895500000074e+01 0.000000000000000000e+00 0.000000000000000000e+00 2.445976100000000000e-02 1.096262580399999997e+01 0.000000000000000000e+00 2.191940900000000081e-02 2.273797300000000160e-02 1.051345631100000055e+01
1.032643206200000030e+01 0.000000000000000000e+00 0.000000000000000000e+00 2.395578099999999891e-02 1.073674673500000054e+01 0.000000000000000000e+00 2.146777100000000008e-02 2.226946900000000007e-02 1.029683213999999936e+01
1.028350543600000044e+01 0.000000000000000000e+00 0.000000000000000000e+00 2.385619799999999860e-02 1.069211444399999955e+01 0.000000000000000000e+00 2.137853099999999923e-02 2.217689600000000150e-02 1.025402856000000007e+01
1.043624733999999954e+01 0.000000000000000000e+00 0.000000000000000000e+00 2.421053600000000125e-02 1.085092545800000075e+01 0.000000000000000000e+00 2.169606799999999891e-02 2.250629100000000118e-02 1.040633264100000055e+01
1.043205970700000051e+01 0.000000000000000000e+00 0.000000000000000000e+00 -2.416573199999999880e-02 1.084663083499999914e+01 0.000000000000000000e+00 2.166419500000000067e-02 -2.260069500000000051e-02 1.040214052600000016e+01
1.042177419699999952e+01 0.000000000000000000e+00 0.000000000000000000e+00 -2.414190500000000170e-02 1.083593657700000001e+01 0.000000000000000000e+00 2.164283499999999916e-02 -2.257841199999999909e-02 1.039188451399999913e+01
1.035422038299999947e+01 0.000000000000000000e+00 0.000000000000000000e+00 -2.398541800000000140e-02 1.076569816800000012e+01 0.000000000000000000e+00 2.150254700000000033e-02 -2.243205900000000072e-02 1.032452444599999986e+01
1.056629317099999987e+01 0.000000000000000000e+00 0.000000000000000000e+00 -2.447668199999999961e-02 1.098619874999999979e+01 0.000000000000000000e+00 2.194295699999999905e-02 -2.289150800000000138e-02 1.053598900799999960e+01
1.030551461299999971e+01 0.000000000000000000e+00 0.000000000000000000e+00 2.390725600000000173e-02 1.071499814300000075e+01 0.000000000000000000e+00 2.142428600000000072e-02 2.222435999999999856e-02 1.027597464900000013e+01
1.045906749899999966e+01 0.000000000000000000e+00 0.000000000000000000e+00 2.426347599999999910e-02 1.087465236299999916e+01 0.000000000000000000e+00 2.174350900000000114e-02 2.255550400000000053e-02 1.042908738799999924e+01
1.041674539399999944e+01 0.000000000000000000e+00 0.000000000000000000e+00 2.416529499999999983e-02 1.083064861399999934e+01 0.000000000000000000e+00 2.165552499999999839e-02 2.246423399999999959e-02 1.038688659600000008e+01
1.028639405100000026e+01 0.000000000000000000e+00 0.000000000000000000e+00 2.386289899999999992e-02 1.069511783699999974e+01 0.000000000000000000e+00 2.138453599999999913e-02 2.218312500000000145e-02 1.025690889500000047e+01
1.015136914300000015e+01 0.000000000000000000e+00 0.000000000000000000e+00 2.354966099999999951e-02 1.055472779399999972e+01 0.000000000000000000e+00 2.110383099999999998e-02 2.189193700000000020e-02 1.012227102499999987e+01
1.040960570800000085e+01 0.000000000000000000e+00 0.000000000000000000e+00 2.414873199999999914e-02 1.082322523600000075e+01 0.000000000000000000e+00 2.164068200000000136e-02 2.244883699999999926e-02 1.037976737500000013e+01
1.066627375300000047e+01 0.000000000000000000e+00 0.000000000000000000e+00 -2.470828499999999997e-02 1.109015257100000085e+01 0.000000000000000000e+00 2.215058599999999989e-02 -2.310811200000000010e-02 1.063568284499999983e+01
1.031653839099999992e+01 0.000000000000000000e+00 0.000000000000000000e+00 2.393282899999999921e-02 1.072645994500000022e+01 0.000000000000000000e+00 2.144720300000000149e-02 2.224813299999999980e-02 1.028696682900000070e+01
1.019261878100000018e+01 0.000000000000000000e+00 0.000000000000000000e+00 -2.361107000000000136e-02 1.059767450200000027e+01 0.000000000000000000e+00 2.116695000000000035e-02 -2.208195500000000033e-02 1.016338631800000059e+01
1.021024876499999934e+01 0.000000000000000000e+00 0.000000000000000000e+00 2.368625300000000086e-02 1.061594696300000074e+01 0.000000000000000000e+00 2.122623599999999902e-02 2.201891400000000054e-02 1.018098187400000043e+01
1.056530617599999999e+01 0.000000000000000000e+00 0.000000000000000000e+00 -2.447439499999999948e-02 1.098517253199999999e+01 0.000000000000000000e+00 2.194090699999999908e-02 -2.288936899999999969e-02 1.053500484399999948e+01
1.047591633799999933e+01 0.000000000000000000e+00 0.000000000000000000e+00 2.430256199999999978e-02 1.089217068099999963e+01 0.000000000000000000e+00 2.177853700000000059e-02 2.259183999999999845e-02 1.044588793099999968e+01
1.033730138099999962e+01 0.000000000000000000e+00 0.000000000000000000e+00 -2.394622500000000154e-02 1.074810680300000065e+01 0.000000000000000000e+00 2.146741099999999874e-02 -2.239540500000000017e-02 1.030765396700000025e+01
1.012592877199999997e+01 0.000000000000000000e+00 0.000000000000000000e+00 -2.345658299999999960e-02 1.052833422500000005e+01 0.000000000000000000e+00 2.102845500000000145e-02 -2.193747299999999900e-02 1.009688757600000031e+01
1.035272668900000070e+01 0.000000000000000000e+00 0.000000000000000000e+00 -2.398195800000000114e-02 1.076414511399999974e+01 0.000000000000000000e+00 2.149944499999999897e-02 -2.242882300000000051e-02 1.032303503500000019e+01
1.034958734199999952e+01 0.000000000000000000e+00 0.000000000000000000e+00 2.400949800000000064e-02 1.076082207600000018e+01 0.000000000000000000e+00 2.151590899999999973e-02 2.231940500000000049e-02 1.031992104699999935e+01
1.042400033200000031e+01 0.000000000000000000e+00 0.000000000000000000e+00 2.418212499999999876e-02 1.083819182200000064e+01 0.000000000000000000e+00 2.167060800000000093e-02 2.247988000000000069e-02 1.039412073799999980e+01
1.022995298500000061e+01 0.000000000000000000e+00 0.000000000000000000e+00 -2.369755399999999915e-02 1.063649237099999922e+01 0.000000000000000000e+00 2.124448099999999909e-02 -2.216283800000000068e-02 1.020061344700000028e+01
1.025220944600000017e+01 0.000000000000000000e+00 0.000000000000000000e+00 -2.374911099999999983e-02 1.065963330499999984e+01 0.000000000000000000e+00 2.129070099999999868e-02 -2.221105599999999985e-02 1.022280607599999946e+01
1.042691102200000053e+01 0.000000000000000000e+00 0.000000000000000000e+00 -2.415380500000000041e-02 1.084127754000000010e+01 0.000000000000000000e+00 2.165350300000000103e-02 -2.258954100000000118e-02 1.039700660699999979e+01
1.032389650100000011e+01 0.000000000000000000e+00 0.000000000000000000e+00 2.394989900000000019e-02 1.073411042500000079e+01 0.000000000000000000e+00 2.146249999999999894e-02 2.226400099999999854e-02 1.029430384700000012e+01
1.028802055999999965e+01 0.000000000000000000e+00 0.000000000000000000e+00 2.386667199999999850e-02 1.069680897399999964e+01 0.000000000000000000e+00 2.138791699999999935e-02 2.218663300000000074e-02 1.025853074099999951e+01
1.046987170699999936e+01 0.000000000000000000e+00 0.000000000000000000e+00 -2.425332300000000024e-02 1.088594548700000075e+01 0.000000000000000000e+00 2.174271900000000063e-02 -2.268261400000000025e-02 1.043984408100000039e+01
1.022602886700000013e+01 0.000000000000000000e+00 0.000000000000000000e+00 -2.368846399999999935e-02 1.063241230699999917e+01 0.000000000000000000e+00 2.123633200000000013e-02 -2.215433699999999964e-02 1.019670058300000015e+01
1.039590225899999965e+01 0.000000000000000000e+00 0.000000000000000000e+00 -2.408197299999999957e-02 1.080903648600000011e+01 0.000000000000000000e+00 2.158910699999999974e-02 -2.252236200000000063e-02 1.036608677799999967e+01
1.041382740200000079e+01 0.000000000000000000e+00 0.000000000000000000e+00 2.415852500000000014e-02 1.082761467699999969e+01 0.000000000000000000e+00 2.164945899999999937e-02 2.245794200000000157e-02 1.038397696800000070e+01
1.049097272300000050e+01 0.000000000000000000e+00 0.000000000000000000e+00 2.433749099999999929e-02 1.090782532200000077e+01 0.000000000000000000e+00 2.180983699999999859e-02 2.262430899999999870e-02 1.046090115800000042e+01
1.038009610399999971e+01 0.000000000000000000e+00 0.000000000000000000e+00 -2.404535799999999932e-02 1.079260219200000037e+01 0.000000000000000000e+00 2.155628299999999900e-02 -2.248811800000000138e-02 1.035032595400000055e+01
1.033624076899999977e+01 0.000000000000000000e+00 0.000000000000000000e+00 -2.394376800000000069e-02 1.074700404200000037e+01 0.000000000000000000e+00 2.146520899999999898e-02 -2.239310699999999890e-02 1.030659639699999985e+01
1.057768717999999986e+01 0.000000000000000000e+00 0.000000000000000000e+00 2.453865599999999897e-02 1.099798532700000031e+01 0.000000000000000000e+00 2.199010900000000074e-02 2.281131299999999973e-02 1.054736705500000049e+01
1.020708471500000059e+01 0.000000000000000000e+00 0.000000000000000000e+00 2.367891299999999935e-02 1.061265719200000035e+01 0.000000000000000000e+00 2.121965899999999836e-02 2.201209100000000099e-02 1.017782689300000065e+01
1.045681440599999945e+01 0.000000000000000000e+00 0.000000000000000000e+00 -2.422307500000000016e-02 1.087236928799999980e+01 0.000000000000000000e+00 2.171560299999999999e-02 -2.265432599999999894e-02 1.042682422799999920e+01
1.041591991299999975e+01 0.000000000000000000e+00 0.000000000000000000e+00 -2.412834399999999949e-02 1.082984964399999939e+01 0.000000000000000000e+00 2.163067800000000040e-02 -2.256572899999999965e-02 1.038604702099999955e+01
1.057867579500000055e+01 0.000000000000000000e+00 0.000000000000000000e+00 2.454094899999999940e-02 1.099901322300000039e+01 0.000000000000000000e+00 2.199216500000000102e-02 2.281344500000000164e-02 1.054835283599999940e+01
1.025569288900000053e+01 0.000000000000000000e+00 0.000000000000000000e+00 -2.375717999999999927e-02 1.066325518100000025e+01 0.000000000000000000e+00 2.129793500000000048e-02 -2.221860299999999996e-02 1.022627952799999917e+01
1.033471135599999968e+01 0.000000000000000000e+00 0.000000000000000000e+00 -2.394022499999999901e-02 1.074541385000000027e+01 0.000000000000000000e+00 2.146203199999999894e-02 -2.238979400000000106e-02 1.030507137000000029e+01
1.028643542100000019e+01 0.000000000000000000e+00 0.000000000000000000e+00 -2.382839499999999874e-02 1.069521942499999945e+01 0.000000000000000000e+00 2.136177800000000140e-02 -2.228520599999999838e-02 1.025693389099999919e+01
1.020659385399999941e+01 0.000000000000000000e+00 0.000000000000000000e+00 2.367777399999999866e-02 1.061214682600000003e+01 0.000000000000000000e+00 2.121863800000000147e-02 2.201103199999999982e-02 1.017733743900000043e+01
1.023654216899999980e+01 0.000000000000000000e+00 0.000000000000000000e+00 2.374725000000000100e-02 1.064328511999999982e+01 0.000000000000000000e+00 2.128089799999999948e-02 2.207561699999999877e-02 1.020719990999999993e+01
1.036984123999999952e+01 0.000000000000000000e+00 0.000000000000000000e+00 -2.402160299999999901e-02 1.078193979899999988e+01 0.000000000000000000e+00 2.153498699999999849e-02 -2.246590099999999993e-02 1.034010050100000022e+01
1.030224317100000064e+01 0.000000000000000000e+00 0.000000000000000000e+00 2.389966699999999944e-02 1.071159671300000049e+01 0.000000000000000000e+00 2.141748499999999999e-02 2.221730499999999969e-02 1.027271258500000073e+01
1.036937064500000005e+01 0.000000000000000000e+00 0.000000000000000000e+00 2.405539199999999836e-02 1.078139145699999979e+01 0.000000000000000000e+00 2.155703700000000111e-02 2.236206799999999884e-02 1.033964764299999928e+01
1.040162349500000083e+01 0.000000000000000000e+00 0.000000000000000000e+00 2.413021400000000052e-02 1.081492585500000025e+01 0.000000000000000000e+00 2.162408799999999964e-02 2.243162300000000123e-02 1.037180804299999970e+01
1.033270204699999972e+01 0.000000000000000000e+00 0.000000000000000000e+00 -2.393557099999999924e-02 1.074332469099999976e+01 0.000000000000000000e+00 2.145785999999999874e-02 -2.238544099999999898e-02 1.030306782399999932e+01
1.043504873999999916e+01 0.000000000000000000e+00 0.000000000000000000e+00 -2.417265600000000070e-02 1.084973865199999921e+01 0.000000000000000000e+00 2.167040300000000128e-02 -2.260717099999999882e-02 1.040512098600000002e+01
1.046947383400000042e+01 0.000000000000000000e+00 0.000000000000000000e+00 2.428761700000000093e-02 1.088547218699999952e+01 0.000000000000000000e+00 2.176514300000000068e-02 2.257794600000000151e-02 1.043946389399999930e+01
1.036649226599999984e+01 0.000000000000000000e+00 0.000000000000000000e+00 -2.401384499999999894e-02 1.077845773700000009e+01 0.000000000000000000e+00 2.152803199999999903e-02 -2.245864599999999878e-02 1.033676113299999955e+01
1.025721678700000083e+01 0.000000000000000000e+00 0.000000000000000000e+00 2.379521199999999961e-02 1.066478123199999928e+01 0.000000000000000000e+00 2.132387900000000044e-02 2.212020300000000148e-02 1.022781526500000027e+01
1.019152532500000063e+01 0.000000000000000000e+00 0.000000000000000000e+00 2.364281799999999947e-02 1.059647955900000049e+01 0.000000000000000000e+00 2.118731199999999981e-02 2.197853599999999991e-02 1.016231210299999965e+01
1.041373351999999919e+01 0.000000000000000000e+00 0.000000000000000000e+00 -2.412327900000000094e-02 1.082757636300000037e+01 0.000000000000000000e+00 2.162613700000000014e-02 -2.256099199999999846e-02 1.038386689899999915e+01
