1.061437494399999970e+01 0.000000000000000000e+00 0.000000000000000000e+00 -3.512957800000000158e-02 1.076111624300000003e+01 0.000000000000000000e+00 -1.797110030000000025e+00 4.809572200000000047e-02 1.086119088100000063e+01
1.034377850799999976e+01 0.000000000000000000e+00 0.000000000000000000e+00 -3.423400599999999738e-02 1.048677887300000044e+01 0.000000000000000000e+00 -1.751295596999999926e+00 4.686959899999999790e-02 1.058430226900000015e+01
1.025144950700000024e+01 0.000000000000000000e+00 0.000000000000000000e+00 -3.392843200000000142e-02 1.039317344400000032e+01 0.000000000000000000e+00 -1.735663458999999964e+00 4.645123899999999834e-02 1.048982634300000072e+01
1.035638570300000083e+01 0.000000000000000000e+00 0.000000000000000000e+00 -3.427573099999999678e-02 1.049956036000000026e+01 0.000000000000000000e+00 -1.753430108999999959e+00 4.692672400000000299e-02 1.059720261999999913e+01
1.034923513700000086e+01 0.000000000000000000e+00 0.000000000000000000e+00 -3.425206499999999821e-02 1.049231093899999934e+01 0.000000000000000000e+00 -1.752219454000000010e+00 4.689432400000000112e-02 1.058988578199999964e+01
1.037687003799999985e+01 0.000000000000000000e+00 0.000000000000000000e+00 -3.434352599999999922e-02 1.052032788500000038e+01 0.000000000000000000e+00 -1.756898293000000111e+00 4.701954299999999698e-02 1.061816327600000065e+01
1.042862357099999926e+01 0.000000000000000000e+00 0.000000000000000000e+00 -3.451481099999999941e-02 1.057279689900000008e+01 0.000000000000000000e+00 -1.765660636000000006e+00 4.725404799999999989e-02 1.067112023399999998e+01
1.032710728700000047e+01 0.000000000000000000e+00 0.000000000000000000e+00 -3.417883000000000032e-02 1.046987717600000067e+01 0.000000000000000000e+00 -1.748473007999999940e+00 4.679405799999999949e-02 1.056724339300000004e+01
1.031230049600000065e+01 0.000000000000000000e+00 0.000000000000000000e+00 -3.412982600000000200e-02 1.045486568399999960e+01 0.000000000000000000e+00 -1.745966083999999974e+00 4.672696600000000172e-02 1.055209229899999990e+01
1.037115738900000039e+01 0.000000000000000000e+00 0.000000000000000000e+00 -3.432462000000000013e-02 1.051453626099999994e+01 0.000000000000000000e+00 -1.755931090000000028e+00 4.699365800000000065e-02 1.061231779100000061e+01
1.035039002799999963e+01 0.000000000000000000e+00 0.000000000000000000e+00 -3.425588799999999823e-02 1.049348179499999922e+01 0.000000000000000000e+00 -1.752414987000000091e+00 4.689955700000000144e-02 1.059106752699999987e+01
1.057990223900000082e+01 0.000000000000000000e+00 0.000000000000000000e+00 -3.501548599999999845e-02 1.072616696000000047e+01 0.000000000000000000e+00 -1.791273488000000080e+00 4.793951999999999936e-02 1.082591658299999970e+01
1.029053985600000054e+01 0.000000000000000000e+00 0.000000000000000000e+00 -3.405780600000000297e-02 1.043280420900000038e+01 0.000000000000000000e+00 -1.742281809999999931e+00 4.662836499999999801e-02 1.052982566000000020e+01
1.045155173500000068e+01 0.000000000000000000e+00 0.000000000000000000e+00 -3.459069499999999769e-02 1.059604203900000030e+01 0.000000000000000000e+00 -1.769542581999999920e+00 4.735794000000000115e-02 1.069458154600000022e+01
1.031301780000000079e+01 0.000000000000000000e+00 0.000000000000000000e+00 -3.413220000000000143e-02 1.045559290499999960e+01 0.000000000000000000e+00 -1.746087530000000054e+00 4.673021599999999803e-02 1.055282628299999992e+01
1.022970291200000048e+01 0.000000000000000000e+00 0.000000000000000000e+00 -3.385645899999999847e-02 1.037112620699999965e+01 0.000000000000000000e+00 -1.731981562999999946e+00 4.635270100000000310e-02 1.046757407399999984e+01
1.030109713699999929e+01 0.000000000000000000e+00 0.000000000000000000e+00 -3.409274699999999964e-02 1.044350744099999950e+01 0.000000000000000000e+00 -1.744069252999999931e+00 4.667620199999999997e-02 1.054062842799999977e+01
1.034494873499999912e+01 0.000000000000000000e+00 0.000000000000000000e+00 -3.423787899999999884e-02 1.048796527800000078e+01 0.000000000000000000e+00 -1.751493726999999945e+00 4.687490099999999660e-02 1.058549970700000031e+01
1.028189062000000042e+01 0.000000000000000000e+00 0.000000000000000000e+00 -3.402917999999999915e-02 1.042403539899999920e+01 0.000000000000000000e+00 -1.740817416000000062e+00 4.658917299999999762e-02 1.052097530300000017e+01
1.025072859299999983e+01 0.000000000000000000e+00 0.000000000000000000e+00 -3.392604600000000137e-02 1.039244256399999955e+01 0.000000000000000000e+00 -1.735541401999999955e+00 4.644797199999999709e-02 1.048908866500000059e+01
1.028646990400000050e+01 0.000000000000000000e+00 0.000000000000000000e+00 -3.404433600000000143e-02 1.042867799100000070e+01 0.000000000000000000e+00 -1.741592730000000033e+00 4.660992299999999755e-02 1.052566106899999987e+01
1.034594038700000063e+01 0.000000000000000000e+00 0.000000000000000000e+00 -3.424116099999999913e-02 1.048897063899999971e+01 0.000000000000000000e+00 -1.751661622000000085e+00 4.687939499999999732e-02 1.058651441800000015e+01
1.031590807199999915e+01 0.000000000000000000e+00 0.000000000000000000e+00 -3.414176499999999753e-02 1.045852313400000000e+01 0.000000000000000000e+00 -1.746576879000000027e+00 4.674331300000000161e-02 1.055578376200000079e+01
1.048892096700000032e+01 0.000000000000000000e+00 0.000000000000000000e+00 -3.471437299999999976e-02 1.063392789299999919e+01 0.000000000000000000e+00 -1.775869533000000056e+00 4.752726699999999804e-02 1.073281972400000051e+01
1.013782072899999953e+01 0.000000000000000000e+00 0.000000000000000000e+00 -3.355236300000000171e-02 1.027797377499999953e+01 0.000000000000000000e+00 -1.716425075000000078e+00 4.593636599999999931e-02 1.037355535700000075e+01
1.031950644600000011e+01 0.000000000000000000e+00 0.000000000000000000e+00 -3.415367500000000139e-02 1.046217125499999945e+01 0.000000000000000000e+00 -1.747186115999999956e+00 4.675961800000000279e-02 1.055946580900000065e+01
1.034550637799999961e+01 0.000000000000000000e+00 0.000000000000000000e+00 -3.423972499999999863e-02 1.048853062999999963e+01 0.000000000000000000e+00 -1.751588141000000043e+00 4.687742799999999876e-02 1.058607031700000078e+01
1.043353622499999922e+01 0.000000000000000000e+00 0.000000000000000000e+00 -3.453106999999999704e-02 1.057777746999999913e+01 0.000000000000000000e+00 -1.766492393000000050e+00 4.727630800000000300e-02 1.067614712199999971e+01
1.032219356899999951e+01 0.000000000000000000e+00 0.000000000000000000e+00 -3.416256799999999733e-02 1.046489552699999948e+01 0.000000000000000000e+00 -1.747641071000000101e+00 4.677179299999999901e-02 1.056221541600000080e+01
1.028651541099999989e+01 0.000000000000000000e+00 0.000000000000000000e+00 -3.404448699999999828e-02 1.042872412700000062e+01 0.000000000000000000e+00 -1.741600435000000058e+00 4.661012900000000014e-02 1.052570763499999984e+01
1.025392835000000069e+01 0.000000000000000000e+00 0.000000000000000000e+00 -3.393663599999999919e-02 1.039568655699999944e+01 0.000000000000000000e+00 -1.736083148999999937e+00 4.646247099999999824e-02 1.049236282699999911e+01
1.021820049699999977e+01 0.000000000000000000e+00 0.000000000000000000e+00 -3.381838999999999679e-02 1.035946477499999929e+01 0.000000000000000000e+00 -1.730034099999999908e+00 4.630058100000000038e-02 1.045580419500000069e+01
1.028183033300000027e+01 0.000000000000000000e+00 0.000000000000000000e+00 -3.402898099999999981e-02 1.042397427799999932e+01 0.000000000000000000e+00 -1.740807208000000106e+00 4.658890000000000253e-02 1.052091361399999947e+01
1.035725240800000080e+01 0.000000000000000000e+00 0.000000000000000000e+00 -3.427859899999999987e-02 1.050043904600000033e+01 0.000000000000000000e+00 -1.753576849999999965e+00 4.693065200000000325e-02 1.059808947700000026e+01
1.037408926200000003e+01 0.000000000000000000e+00 0.000000000000000000e+00 -3.433432299999999993e-02 1.051750866599999945e+01 0.000000000000000000e+00 -1.756427482999999956e+00 4.700694300000000242e-02 1.061531783899999937e+01
1.036748759600000014e+01 0.000000000000000000e+00 0.000000000000000000e+00 -3.431247400000000253e-02 1.051081573299999938e+01 0.000000000000000000e+00 -1.755309760999999913e+00 4.697702899999999654e-02 1.060856266400000081e+01
1.033128556900000028e+01 0.000000000000000000e+00 0.000000000000000000e+00 -3.419265900000000025e-02 1.047411322199999972e+01 0.000000000000000000e+00 -1.749180428999999926e+00 4.681299099999999824e-02 1.057151883200000064e+01
1.037251518699999941e+01 0.000000000000000000e+00 0.000000000000000000e+00 -3.432911300000000138e-02 1.051591282899999946e+01 0.000000000000000000e+00 -1.756160976999999956e+00 4.699981000000000297e-02 1.061370716200000075e+01
1.036040552100000056e+01 0.000000000000000000e+00 0.000000000000000000e+00 -3.428903500000000243e-02 1.050363575099999913e+01 0.000000000000000000e+00 -1.754110701000000105e+00 4.694493899999999803e-02 1.060131591000000029e+01
1.036105423000000059e+01 0.000000000000000000e+00 0.000000000000000000e+00 -3.429118200000000338e-02 1.050429342700000035e+01 0.000000000000000000e+00 -1.754220533000000026e+00 4.694787799999999844e-02 1.060197970299999959e+01
1.037367513699999932e+01 0.000000000000000000e+00 0.000000000000000000e+00 -3.433295199999999991e-02 1.051708881599999934e+01 0.000000000000000000e+00 -1.756357367999999974e+00 4.700506599999999813e-02 1.061489408399999945e+01
1.037668541400000066e+01 0.000000000000000000e+00 0.000000000000000000e+00 -3.434291500000000164e-02 1.052014070899999965e+01 0.000000000000000000e+00 -1.756867034999999966e+00 4.701870600000000039e-02 1.061797435999999983e+01
1.031153228199999994e+01 0.000000000000000000e+00 0.000000000000000000e+00 -3.412728300000000131e-02 1.045408684999999949e+01 0.000000000000000000e+00 -1.745836018000000101e+00 4.672348500000000210e-02 1.055130622199999912e+01
1.032334663399999997e+01 0.000000000000000000e+00 0.000000000000000000e+00 -3.416638400000000103e-02 1.046606453300000084e+01 0.000000000000000000e+00 -1.747836294999999929e+00 4.677701799999999660e-02 1.056339529299999924e+01
1.019255048600000002e+01 0.000000000000000000e+00 0.000000000000000000e+00 -3.373349800000000065e-02 1.033346015799999940e+01 0.000000000000000000e+00 -1.725691319999999918e+00 4.618435600000000280e-02 1.042955774400000024e+01
1.027079605700000009e+01 0.000000000000000000e+00 0.000000000000000000e+00 -3.399246200000000107e-02 1.041278745600000022e+01 0.000000000000000000e+00 -1.738939004999999982e+00 4.653890200000000005e-02 1.050962275800000079e+01
1.031281796600000078e+01 0.000000000000000000e+00 0.000000000000000000e+00 -3.413153800000000293e-02 1.045539030800000013e+01 0.000000000000000000e+00 -1.746053695999999933e+00 4.672931100000000254e-02 1.055262180200000088e+01
1.031901014199999977e+01 0.000000000000000000e+00 0.000000000000000000e+00 -3.415203199999999883e-02 1.046166808999999986e+01 0.000000000000000000e+00 -1.747102088000000109e+00 4.675736900000000001e-02 1.055895796499999939e+01
1.034778888700000010e+01 0.000000000000000000e+00 0.000000000000000000e+00 -3.424727899999999853e-02 1.049084469399999975e+01 0.000000000000000000e+00 -1.751974590000000109e+00 4.688777100000000170e-02 1.058840590199999987e+01
1.030825472699999956e+01 0.000000000000000000e+00 0.000000000000000000e+00 -3.411643599999999998e-02 1.045076398299999987e+01 0.000000000000000000e+00 -1.745281097999999975e+00 4.670863399999999888e-02 1.054795245400000070e+01
1.021011125999999969e+01 0.000000000000000000e+00 0.000000000000000000e+00 -3.379161800000000243e-02 1.035126370599999923e+01 0.000000000000000000e+00 -1.728664517999999983e+00 4.626392700000000330e-02 1.044752685899999989e+01
1.025087362200000030e+01 0.000000000000000000e+00 0.000000000000000000e+00 -3.392652599999999852e-02 1.039258959800000071e+01 0.000000000000000000e+00 -1.735565956000000076e+00 4.644862899999999822e-02 1.048923706699999947e+01
1.038690113500000045e+01 0.000000000000000000e+00 0.000000000000000000e+00 -3.437672600000000328e-02 1.053049765999999998e+01 0.000000000000000000e+00 -1.758596649000000012e+00 4.706499599999999783e-02 1.062842762600000057e+01
1.039299252400000029e+01 0.000000000000000000e+00 0.000000000000000000e+00 -3.439688600000000152e-02 1.053667326200000076e+01 0.000000000000000000e+00 -1.759627977000000065e+00 4.709259699999999993e-02 1.063466065899999968e+01
1.041933370299999950e+01 0.000000000000000000e+00 0.000000000000000000e+00 -3.448406500000000124e-02 1.056337860100000015e+01 0.000000000000000000e+00 -1.764087777000000079e+00 4.721195400000000042e-02 1.066161434800000052e+01
1.021379740699999950e+01 0.000000000000000000e+00 0.000000000000000000e+00 -3.380381699999999989e-02 1.035500081200000011e+01 0.000000000000000000e+00 -1.729288616000000056e+00 4.628063000000000315e-02 1.045129871900000040e+01
1.038328469400000031e+01 0.000000000000000000e+00 0.000000000000000000e+00 -3.436475600000000324e-02 1.052683122300000029e+01 0.000000000000000000e+00 -1.757984353000000111e+00 4.704860899999999818e-02 1.062472709300000062e+01
1.034739650300000058e+01 0.000000000000000000e+00 0.000000000000000000e+00 -3.424598000000000225e-02 1.049044688500000078e+01 0.000000000000000000e+00 -1.751908156000000050e+00 4.688599300000000081e-02 1.058800439300000029e+01
1.029973420700000020e+01 0.000000000000000000e+00 0.000000000000000000e+00 -3.408823600000000092e-02 1.044212566899999928e+01 0.000000000000000000e+00 -1.743838497000000043e+00 4.667002600000000334e-02 1.053923380600000037e+01
1.036285174400000031e+01 0.000000000000000000e+00 0.000000000000000000e+00 -3.429713100000000153e-02 1.050611579099999915e+01 0.000000000000000000e+00 -1.754524868999999931e+00 4.695602299999999951e-02 1.060381901499999913e+01
1.040618893799999967e+01 0.000000000000000000e+00 0.000000000000000000e+00 -3.444056100000000148e-02 1.055005211199999948e+01 0.000000000000000000e+00 -1.761862248999999991e+00 4.715239200000000130e-02 1.064816392800000067e+01
1.039552915800000044e+01 0.000000000000000000e+00 0.000000000000000000e+00 -3.440528100000000283e-02 1.053924496399999988e+01 0.000000000000000000e+00 -1.760057452000000078e+00 4.710409100000000071e-02 1.063725627700000054e+01
1.031917610500000038e+01 0.000000000000000000e+00 0.000000000000000000e+00 -3.415258100000000130e-02 1.046183634700000020e+01 0.000000000000000000e+00 -1.747130187000000001e+00 4.675812099999999971e-02 1.055912778699999954e+01
1.028928754500000053e+01 0.000000000000000000e+00 0.000000000000000000e+00 -3.405366099999999896e-02 1.043153458499999964e+01 0.000000000000000000e+00 -1.742069781999999956e+00 4.662269000000000135e-02 1.052854422899999953e+01
1.040931060099999961e+01 0.000000000000000000e+00 0.000000000000000000e+00 -3.445089199999999685e-02 1.055321693099999969e+01 0.000000000000000000e+00 -1.762390775000000076e+00 4.716653700000000143e-02 1.065135817900000070e+01
1.050139254399999977e+01 0.000000000000000000e+00 0.000000000000000000e+00 -3.475564899999999957e-02 1.064657188600000026e+01 0.000000000000000000e+00 -1.777981084000000100e+00 4.758377800000000019e-02 1.074558130199999972e+01
1.031555041700000075e+01 0.000000000000000000e+00 0.000000000000000000e+00 -3.414058200000000265e-02 1.045816053499999931e+01 0.000000000000000000e+00 -1.746516324999999981e+00 4.674169200000000135e-02 1.055541779099999999e+01
1.038844094999999967e+01 0.000000000000000000e+00 0.000000000000000000e+00 -3.438182199999999938e-02 1.053205876200000013e+01 0.000000000000000000e+00 -1.758857354000000095e+00 4.707197300000000306e-02 1.063000324599999935e+01
1.031824421900000033e+01 0.000000000000000000e+00 0.000000000000000000e+00 -3.414949700000000088e-02 1.046089157800000002e+01 0.000000000000000000e+00 -1.746972409999999920e+00 4.675389800000000207e-02 1.055817423200000071e+01
1.023551007800000079e+01 0.000000000000000000e+00 0.000000000000000000e+00 -3.387567799999999935e-02 1.037701365699999911e+01 0.000000000000000000e+00 -1.732964769000000071e+00 4.637901400000000313e-02 1.047351627499999971e+01
1.039763756400000005e+01 0.000000000000000000e+00 0.000000000000000000e+00 -3.441225900000000060e-02 1.054138251800000070e+01 0.000000000000000000e+00 -1.760414423999999922e+00 4.711364400000000313e-02 1.063941370899999939e+01
1.044986861199999950e+01 0.000000000000000000e+00 0.000000000000000000e+00 -3.458512400000000181e-02 1.059433564799999949e+01 0.000000000000000000e+00 -1.769257614000000034e+00 4.735031299999999804e-02 1.069285928500000082e+01
1.027707591999999970e+01 0.000000000000000000e+00 0.000000000000000000e+00 -3.401324599999999698e-02 1.041915413599999951e+01 0.000000000000000000e+00 -1.740002242999999948e+00 4.656735699999999673e-02 1.051604864699999986e+01
1.026715541699999967e+01 0.000000000000000000e+00 0.000000000000000000e+00 -3.398041200000000150e-02 1.040909648499999918e+01 0.000000000000000000e+00 -1.738322611999999934e+00 4.652240500000000278e-02 1.050589746200000008e+01
1.036316167600000071e+01 0.000000000000000000e+00 0.000000000000000000e+00 -3.429815700000000273e-02 1.050643000800000060e+01 0.000000000000000000e+00 -1.754577343000000011e+00 4.695742800000000244e-02 1.060413615400000076e+01
1.021467877199999919e+01 0.000000000000000000e+00 0.000000000000000000e+00 -3.380673399999999801e-02 1.035589436200000080e+01 0.000000000000000000e+00 -1.729437839999999893e+00 4.628462400000000337e-02 1.045220057799999935e+01
1.027682037499999979e+01 0.000000000000000000e+00 0.000000000000000000e+00 -3.401239999999999819e-02 1.041889505900000046e+01 0.000000000000000000e+00 -1.739958976999999907e+00 4.656619900000000256e-02 1.051578716000000036e+01
1.047121404199999972e+01 0.000000000000000000e+00 0.000000000000000000e+00 -3.465576900000000293e-02 1.061597617299999996e+01 0.000000000000000000e+00 -1.772871588999999970e+00 4.744703299999999957e-02 1.071470105999999944e+01
1.039823342500000081e+01 0.000000000000000000e+00 0.000000000000000000e+00 -3.441423100000000346e-02 1.054198661600000086e+01 0.000000000000000000e+00 -1.760515309000000084e+00 4.711634399999999750e-02 1.064002342600000084e+01
1.028730611099999948e+01 0.000000000000000000e+00 0.000000000000000000e+00 -3.404710400000000164e-02 1.042952575700000040e+01 0.000000000000000000e+00 -1.741734306999999982e+00 4.661371200000000159e-02 1.052651672000000005e+01
1.032441902899999953e+01 0.000000000000000000e+00 0.000000000000000000e+00 -3.416993299999999956e-02 1.046715175299999956e+01 0.000000000000000000e+00 -1.748017860999999895e+00 4.678187699999999949e-02 1.056449262399999967e+01
1.022430042799999939e+01 0.000000000000000000e+00 0.000000000000000000e+00 -3.383857900000000057e-02 1.036564903500000057e+01 0.000000000000000000e+00 -1.731066873000000061e+00 4.632822100000000276e-02 1.046204596699999989e+01
1.043741898200000051e+01 0.000000000000000000e+00 0.000000000000000000e+00 -3.454392099999999827e-02 1.058171390400000078e+01 0.000000000000000000e+00 -1.767149778999999921e+00 4.729390099999999930e-02 1.068012016399999986e+01
1.024437172300000043e+01 0.000000000000000000e+00 0.000000000000000000e+00 -3.390500700000000089e-02 1.038599781099999930e+01 0.000000000000000000e+00 -1.734465125999999913e+00 4.641916799999999677e-02 1.048258397899999927e+01
1.026735288100000076e+01 0.000000000000000000e+00 0.000000000000000000e+00 -3.398106599999999727e-02 1.040929667900000055e+01 0.000000000000000000e+00 -1.738356044000000100e+00 4.652329999999999660e-02 1.050609951799999919e+01
1.032336875300000045e+01 0.000000000000000000e+00 0.000000000000000000e+00 -3.416645699999999730e-02 1.046608695800000000e+01 0.000000000000000000e+00 -1.747840040000000039e+00 4.677711799999999948e-02 1.056341792699999971e+01
1.028277595600000005e+01 0.000000000000000000e+00 0.000000000000000000e+00 -3.403210999999999736e-02 1.042493297400000074e+01 0.000000000000000000e+00 -1.740967310999999906e+00 4.659318500000000224e-02 1.052188122499999956e+01
1.032337986599999979e+01 0.000000000000000000e+00 0.000000000000000000e+00 -3.416649399999999864e-02 1.046609822399999956e+01 0.000000000000000000e+00 -1.747841921000000021e+00 4.677716900000000039e-02 1.056342929700000077e+01
1.029112040400000083e+01 0.000000000000000000e+00 0.000000000000000000e+00 -3.405972699999999798e-02 1.043339278300000039e+01 0.000000000000000000e+00 -1.742380102000000042e+00 4.663099500000000147e-02 1.053041970700000007e+01
1.030510254900000078e+01 0.000000000000000000e+00 0.000000000000000000e+00 -3.410600300000000279e-02 1.044756822699999965e+01 0.000000000000000000e+00 -1.744747405999999890e+00 4.669435100000000199e-02 1.054472697799999992e+01
1.038542840400000067e+01 0.000000000000000000e+00 0.000000000000000000e+00 -3.437185100000000187e-02 1.052900456899999959e+01 0.000000000000000000e+00 -1.758347302000000001e+00 4.705832199999999965e-02 1.062692065000000063e+01
1.038916031199999956e+01 0.000000000000000000e+00 0.000000000000000000e+00 -3.438420300000000207e-02 1.053278806900000042e+01 0.000000000000000000e+00 -1.758979148000000103e+00 4.707523200000000158e-02 1.063073933599999954e+01
1.033493822600000023e+01 0.000000000000000000e+00 0.000000000000000000e+00 -3.420474800000000010e-02 1.047781637599999982e+01 0.000000000000000000e+00 -1.749798857000000041e+00 4.682954200000000178e-02 1.057525642400000088e+01
1.025521096599999993e+01 0.000000000000000000e+00 0.000000000000000000e+00 -3.394088099999999913e-02 1.039698690500000033e+01 0.000000000000000000e+00 -1.736300307999999903e+00 4.646828299999999912e-02 1.049367526700000042e+01
1.025927989800000084e+01 0.000000000000000000e+00 0.000000000000000000e+00 -3.395434700000000278e-02 1.040111208799999964e+01 0.000000000000000000e+00 -1.736989214999999920e+00 4.648672000000000221e-02 1.049783881399999963e+01
1.024021050600000038e+01 0.000000000000000000e+00 0.000000000000000000e+00 -3.389123499999999872e-02 1.038177906700000008e+01 0.000000000000000000e+00 -1.733760594000000044e+00 4.640031299999999859e-02 1.047832600199999931e+01
1.032913126200000065e+01 0.000000000000000000e+00 0.000000000000000000e+00 -3.418552899999999922e-02 1.047192913199999964e+01 0.000000000000000000e+00 -1.748815685000000064e+00 4.680322900000000175e-02 1.056931443100000045e+01
1.027872266500000009e+01 0.000000000000000000e+00 0.000000000000000000e+00 -3.401869600000000105e-02 1.042082364700000063e+01 0.000000000000000000e+00 -1.740281052000000050e+00 4.657481900000000341e-02 1.051773368299999944e+01
1.027977671600000065e+01 0.000000000000000000e+00 0.000000000000000000e+00 -3.402218399999999698e-02 1.042189227100000082e+01 0.000000000000000000e+00 -1.740459513000000014e+00 4.657959500000000141e-02 1.051881224499999945e+01
1.037247763300000081e+01 0.000000000000000000e+00 0.000000000000000000e+00 -3.432898899999999726e-02 1.051587475700000063e+01 0.000000000000000000e+00 -1.756154618999999917e+00 4.699964000000000225e-02 1.061366873499999919e+01
