1.037318617600000081e+01 0.000000000000000000e+00 0.000000000000000000e+00 -2.106843400000000047e-02 1.074948083700000012e+01 0.000000000000000000e+00 1.122459500000000041e-02 1.405378000000000096e-03 1.030795249700000049e+01
1.014883843700000021e+01 0.000000000000000000e+00 0.000000000000000000e+00 -2.061277300000000090e-02 1.051699472499999999e+01 0.000000000000000000e+00 1.098183399999999935e-02 1.374982999999999978e-03 1.008501560899999916e+01
1.024194884099999925e+01 0.000000000000000000e+00 0.000000000000000000e+00 -2.080188499999999913e-02 1.061348277399999951e+01 0.000000000000000000e+00 1.108258600000000017e-02 1.387598000000000087e-03 1.017754047200000045e+01
1.025183649300000077e+01 0.000000000000000000e+00 0.000000000000000000e+00 -2.082196700000000025e-02 1.062372910799999914e+01 0.000000000000000000e+00 1.109328499999999960e-02 1.388937999999999935e-03 1.018736594399999973e+01
1.028421749900000037e+01 0.000000000000000000e+00 0.000000000000000000e+00 -2.088773400000000155e-02 1.065728475799999941e+01 0.000000000000000000e+00 1.112832400000000020e-02 1.393324999999999945e-03 1.021954331599999932e+01
1.040451531299999921e+01 0.000000000000000000e+00 0.000000000000000000e+00 -2.113206499999999849e-02 1.078194646000000034e+01 0.000000000000000000e+00 1.125849599999999978e-02 1.409623000000000039e-03 1.033908461400000078e+01
1.014604876399999966e+01 0.000000000000000000e+00 0.000000000000000000e+00 -2.060710699999999951e-02 1.051410385400000003e+01 0.000000000000000000e+00 1.097881499999999941e-02 1.374605000000000098e-03 1.008224348000000070e+01
1.037907635000000006e+01 0.000000000000000000e+00 0.000000000000000000e+00 -2.108039700000000072e-02 1.075558468100000020e+01 0.000000000000000000e+00 1.123096900000000037e-02 1.406176000000000084e-03 1.031380562900000086e+01
1.016198763499999913e+01 0.000000000000000000e+00 0.000000000000000000e+00 -2.063948000000000171e-02 1.053062091900000041e+01 0.000000000000000000e+00 1.099606199999999916e-02 1.376765000000000063e-03 1.009808211600000050e+01
1.020661257799999966e+01 0.000000000000000000e+00 0.000000000000000000e+00 -2.073011500000000035e-02 1.057686466400000036e+01 0.000000000000000000e+00 1.104434999999999965e-02 1.382811000000000066e-03 1.014242642700000019e+01
1.026139387099999922e+01 0.000000000000000000e+00 0.000000000000000000e+00 -2.084137800000000068e-02 1.063363318699999915e+01 0.000000000000000000e+00 1.110362699999999959e-02 1.390231999999999926e-03 1.019686321800000073e+01
1.024601429199999991e+01 0.000000000000000000e+00 0.000000000000000000e+00 -2.081014200000000022e-02 1.061769570300000076e+01 0.000000000000000000e+00 1.108698500000000059e-02 1.388148999999999980e-03 1.018158035599999955e+01
1.036876578799999926e+01 0.000000000000000000e+00 0.000000000000000000e+00 -2.105945600000000070e-02 1.074490009600000029e+01 0.000000000000000000e+00 1.121981199999999915e-02 1.404779000000000097e-03 1.030355990700000035e+01
1.028365235100000064e+01 0.000000000000000000e+00 0.000000000000000000e+00 -2.088658599999999865e-02 1.065669910899999984e+01 0.000000000000000000e+00 1.112771299999999915e-02 1.393247999999999926e-03 1.021898172200000054e+01
1.029699579699999923e+01 0.000000000000000000e+00 0.000000000000000000e+00 -2.091368799999999972e-02 1.067052659800000036e+01 0.000000000000000000e+00 1.114215099999999944e-02 1.395055999999999987e-03 1.023224125499999992e+01
1.036916112699999992e+01 0.000000000000000000e+00 0.000000000000000000e+00 -2.106025900000000131e-02 1.074530977599999915e+01 0.000000000000000000e+00 1.122023999999999938e-02 1.404833000000000080e-03 1.030395275999999960e+01
1.024192547200000014e+01 0.000000000000000000e+00 0.000000000000000000e+00 -2.080183700000000011e-02 1.061345855799999960e+01 0.000000000000000000e+00 1.108256099999999945e-02 1.387594999999999931e-03 1.017751724999999929e+01
1.043034112700000016e+01 0.000000000000000000e+00 0.000000000000000000e+00 -2.118451799999999940e-02 1.080870912399999995e+01 0.000000000000000000e+00 1.128644099999999949e-02 1.413121999999999946e-03 1.036474801800000023e+01
1.046780524899999953e+01 0.000000000000000000e+00 0.000000000000000000e+00 -2.126060999999999923e-02 1.084753228399999969e+01 0.000000000000000000e+00 1.132698000000000038e-02 1.418196999999999947e-03 1.040197654099999980e+01
1.030515833199999953e+01 0.000000000000000000e+00 0.000000000000000000e+00 -2.093026599999999945e-02 1.067898523400000066e+01 0.000000000000000000e+00 1.115098399999999920e-02 1.396162000000000054e-03 1.024035245800000027e+01
1.020745594899999986e+01 0.000000000000000000e+00 0.000000000000000000e+00 -2.073182800000000076e-02 1.057773862900000061e+01 0.000000000000000000e+00 1.104526200000000014e-02 1.382924999999999910e-03 1.014326449500000038e+01
1.037629991899999915e+01 0.000000000000000000e+00 0.000000000000000000e+00 -2.107475799999999899e-02 1.075270753300000059e+01 0.000000000000000000e+00 1.122796499999999947e-02 1.405800000000000018e-03 1.031104665800000042e+01
1.036645479399999914e+01 0.000000000000000000e+00 0.000000000000000000e+00 -2.105476200000000117e-02 1.074250526900000047e+01 0.000000000000000000e+00 1.121731100000000064e-02 1.404466000000000048e-03 1.030126344600000010e+01
1.029933118800000003e+01 0.000000000000000000e+00 0.000000000000000000e+00 -2.091843100000000122e-02 1.067294670699999948e+01 0.000000000000000000e+00 1.114467799999999988e-02 1.395371999999999975e-03 1.023456196000000062e+01
1.013598389000000033e+01 0.000000000000000000e+00 0.000000000000000000e+00 -2.058666500000000052e-02 1.050367387000000008e+01 0.000000000000000000e+00 1.096792400000000042e-02 1.373241999999999996e-03 1.007224189999999986e+01
1.019698919900000078e+01 0.000000000000000000e+00 0.000000000000000000e+00 -2.071056900000000159e-02 1.056689219000000080e+01 0.000000000000000000e+00 1.103393599999999940e-02 1.381506999999999917e-03 1.013286356699999935e+01
1.026504735900000043e+01 0.000000000000000000e+00 0.000000000000000000e+00 -2.084879900000000119e-02 1.063741920800000074e+01 0.000000000000000000e+00 1.110758100000000005e-02 1.390727000000000022e-03 1.020049372999999981e+01
1.027161771099999932e+01 0.000000000000000000e+00 0.000000000000000000e+00 -2.086214399999999913e-02 1.064422790399999919e+01 0.000000000000000000e+00 1.111468999999999999e-02 1.391618000000000065e-03 1.020702276399999953e+01
1.013114243000000059e+01 0.000000000000000000e+00 0.000000000000000000e+00 -2.057683199999999976e-02 1.049865678299999949e+01 0.000000000000000000e+00 1.096268499999999979e-02 1.372586000000000075e-03 1.006743088700000044e+01
1.024393046900000037e+01 0.000000000000000000e+00 0.000000000000000000e+00 -2.080590900000000090e-02 1.061553628799999949e+01 0.000000000000000000e+00 1.108472999999999924e-02 1.387865999999999969e-03 1.017950963800000075e+01
1.031238065700000028e+01 0.000000000000000000e+00 0.000000000000000000e+00 -2.094493500000000133e-02 1.068646955500000040e+01 0.000000000000000000e+00 1.115879900000000050e-02 1.397140000000000057e-03 1.024752936500000011e+01
1.043696720500000019e+01 0.000000000000000000e+00 0.000000000000000000e+00 -2.119797600000000032e-02 1.081557556699999978e+01 0.000000000000000000e+00 1.129361100000000027e-02 1.414019000000000083e-03 1.037133242700000046e+01
1.041519164600000025e+01 0.000000000000000000e+00 0.000000000000000000e+00 -2.115374899999999947e-02 1.079301008500000059e+01 0.000000000000000000e+00 1.127004799999999952e-02 1.411069000000000039e-03 1.034969380799999961e+01
1.026529983600000051e+01 0.000000000000000000e+00 0.000000000000000000e+00 -2.084931199999999832e-02 1.063768084400000014e+01 0.000000000000000000e+00 1.110785400000000034e-02 1.390762000000000031e-03 1.020074462000000004e+01
1.030149575199999923e+01 0.000000000000000000e+00 0.000000000000000000e+00 -2.092282700000000148e-02 1.067518979199999940e+01 0.000000000000000000e+00 1.114702100000000001e-02 1.395666000000000051e-03 1.023671291099999969e+01
1.043369427400000049e+01 0.000000000000000000e+00 0.000000000000000000e+00 -2.119132899999999833e-02 1.081218390899999982e+01 0.000000000000000000e+00 1.129006999999999927e-02 1.413575999999999938e-03 1.036808007900000028e+01
1.022598917400000040e+01 0.000000000000000000e+00 0.000000000000000000e+00 -2.076947000000000168e-02 1.059694415899999953e+01 0.000000000000000000e+00 1.106531699999999986e-02 1.385436000000000089e-03 1.016168116999999960e+01
1.024974608199999970e+01 0.000000000000000000e+00 0.000000000000000000e+00 -2.081772100000000084e-02 1.062156286699999974e+01 0.000000000000000000e+00 1.109102300000000020e-02 1.388654000000000017e-03 1.018528867899999923e+01
1.022551170000000020e+01 0.000000000000000000e+00 0.000000000000000000e+00 -2.076849999999999877e-02 1.059644936499999979e+01 0.000000000000000000e+00 1.106479999999999964e-02 1.385371000000000042e-03 1.016120669899999918e+01
1.033051372199999918e+01 0.000000000000000000e+00 0.000000000000000000e+00 -2.098176399999999997e-02 1.070526040999999928e+01 0.000000000000000000e+00 1.117841999999999968e-02 1.399597000000000037e-03 1.026554839699999988e+01
1.024506397000000035e+01 0.000000000000000000e+00 0.000000000000000000e+00 -2.080821199999999954e-02 1.061671090699999986e+01 0.000000000000000000e+00 1.108595700000000045e-02 1.388020000000000009e-03 1.018063601000000062e+01
1.023487834400000018e+01 0.000000000000000000e+00 0.000000000000000000e+00 -2.078752400000000167e-02 1.060615579100000083e+01 0.000000000000000000e+00 1.107493499999999929e-02 1.386639999999999965e-03 1.017051443899999974e+01
1.024313777000000059e+01 0.000000000000000000e+00 0.000000000000000000e+00 -2.080429899999999832e-02 1.061471483200000065e+01 0.000000000000000000e+00 1.108387299999999930e-02 1.387758999999999911e-03 1.017872192399999953e+01
1.028112201999999975e+01 0.000000000000000000e+00 0.000000000000000000e+00 -2.088144700000000090e-02 1.065407698799999991e+01 0.000000000000000000e+00 1.112497500000000049e-02 1.392905000000000055e-03 1.021646730299999994e+01
1.024831162099999915e+01 0.000000000000000000e+00 0.000000000000000000e+00 -2.081480800000000062e-02 1.062007636899999952e+01 0.000000000000000000e+00 1.108947100000000005e-02 1.388459999999999998e-03 1.018386323800000071e+01
1.026494654400000073e+01 0.000000000000000000e+00 0.000000000000000000e+00 -2.084859400000000154e-02 1.063731473600000044e+01 0.000000000000000000e+00 1.110747200000000018e-02 1.390713999999999926e-03 1.020039354999999937e+01
1.022882456500000004e+01 0.000000000000000000e+00 0.000000000000000000e+00 -2.077522899999999922e-02 1.059988240600000076e+01 0.000000000000000000e+00 1.106838500000000003e-02 1.385820000000000064e-03 1.016449873000000004e+01
1.044222529199999983e+01 0.000000000000000000e+00 0.000000000000000000e+00 -2.120865599999999934e-02 1.082102439600000032e+01 0.000000000000000000e+00 1.129930099999999944e-02 1.414731999999999925e-03 1.037655744799999979e+01
1.025766589999999923e+01 0.000000000000000000e+00 0.000000000000000000e+00 -2.083380699999999933e-02 1.062976998199999912e+01 0.000000000000000000e+00 1.109959299999999961e-02 1.389727000000000106e-03 1.019315869200000080e+01
1.033791673600000038e+01 0.000000000000000000e+00 0.000000000000000000e+00 -2.099679999999999949e-02 1.071293197299999989e+01 0.000000000000000000e+00 1.118643100000000015e-02 1.400599999999999892e-03 1.027290485500000017e+01
