1.006200000000000011e-01 2.627289999999999903e+00 2.557230000000000114e+00 6.887999999999999678e-02 2.347339999999999982e+00 7.690050000000000274e+00 1.016841999999999935e+01 8.036820000000000519e+00 2.609129999999999949e+00 -3.899999999999999929e-04 8.311590000000000700e+00 7.661529999999999951e+00 5.638799999999999812e+00 2.490250000000000075e+00 2.380409999999999915e+00 5.736399999999999721e+00 2.678710000000000147e+00 8.009199999999999875e+00 4.990409999999999791e+00 7.204769999999999897e+00 2.228439999999999976e+00 5.139190000000000147e+00 7.607009999999999827e+00 7.774160000000000181e+00 2.718879999999999963e+00 4.788219999999999921e+00 2.709569999999999812e+00 2.646339999999999915e+00 4.910420000000000229e+00 7.586039999999999672e+00 2.845009999999999817e+00 1.052358000000000082e+01 2.813569999999999904e+00 2.876059999999999839e+00 1.076748000000000083e+01 7.419629999999999725e+00 7.832980000000000054e+00 5.468960000000000043e+00 2.573850000000000193e+00 8.269429999999999836e+00 5.444619999999999571e+00 8.283189999999999387e+00 7.583759999999999835e+00 1.050497999999999976e+01 2.294719999999999871e+00 7.807909999999999684e+00 1.069368000000000052e+01 7.558209999999999873e+00 2.798080000000000123e+00 2.493149999999999977e+00 5.402269999999999683e+00 3.096769999999999801e+00 1.901420000000000110e+00 1.028375999999999912e+01 2.558840000000000003e+00 7.958610000000000184e+00 5.194049999999999834e+00 2.385990000000000055e+00 8.644920000000000826e+00 2.736299999999999844e-01 8.123409999999999798e+00 2.682310000000000194e+00 5.354519999999999946e+00 8.382350000000000634e+00 2.930930000000000035e+00 1.115199999999999941e-01 7.558910000000000018e+00 8.193160000000000664e+00 5.075809999999999711e+00 7.604759999999999742e+00 8.210820000000000007e+00 2.086999999999999966e-02 6.471999999999999975e-02 1.076398000000000010e+01 4.733120000000000438e+00 1.027222000000000079e+01 1.486699999999999966e-01 1.037846000000000046e+01 1.041009000000000029e+01 5.380910000000000082e+00 5.401970000000000383e+00 4.493500000000000272e-01 6.063229999999999897e+00 4.664000000000000090e-02 5.429240000000000066e+00 1.298199999999999910e-01 4.815920000000000201e+00 4.961689999999999934e+00 1.045777999999999963e+01 9.895490000000000563e+00 5.308600000000000207e+00 4.940859999999999808e+00 4.950619999999999798e+00 5.190470000000000361e+00 4.946460000000000079e+00 1.019305999999999912e+01 4.132189999999999586e+00 3.511509999999999909e+00 3.739840000000000053e+00 4.190129999999999910e+00 4.277449999999999974e+00 8.702120000000000744e+00 3.453790000000000138e+00 8.458090000000000330e+00 2.200899999999999856e+00 1.343420000000000059e+00 8.267459999999999809e+00 9.051769999999999428e+00 8.952379999999999782e+00 5.160590000000000011e+00 4.432310000000000194e+00 9.210789999999999367e+00 1.612810000000000077e+00 9.179090000000000416e+00 9.038109999999999644e+00 9.775700000000000500e+00 3.537409999999999943e+00 3.327170000000000183e+00 1.071978000000000009e+01 7.122600000000000042e-01 4.025750000000000384e+00 1.037649999999999961e+00 6.079640000000000377e+00 3.905370000000000008e+00 6.002580000000000027e+00 6.609899999999999665e-01 4.074840000000000018e+00 6.293840000000000323e+00 6.737169999999999881e+00 9.175440000000000040e+00 1.257100000000000106e+00 1.594929999999999959e+00 9.505559999999999121e+00 8.250100000000000211e-01 6.432140000000000413e+00 9.078300000000000480e+00 6.584959999999999702e+00 9.474799999999999889e-01 9.333600000000000563e+00 6.320459999999999745e+00 6.613739999999999952e+00 4.231449999999999712e+00 1.098829999999999973e+00 3.412879999999999914e+00 4.063060000000000116e+00 1.124230000000000063e+00 8.577600000000000335e+00 4.022979999999999556e+00 6.077169999999999739e+00 3.883210000000000051e+00 4.243879999999999875e+00 8.524950000000000472e+00 9.526859999999999218e+00 9.605669999999999931e+00 1.880719999999999947e+00 4.262819999999999609e+00 9.233810000000000073e+00 1.001145999999999958e+01 8.961090000000000444e+00 8.683920000000000528e+00 7.347640000000000171e+00 3.617960000000000065e+00 9.387130000000000862e+00 4.449900000000000411e+00 9.772320000000000562e+00 4.596930000000000405e+00 3.018339999999999801e+00 8.053500000000000103e-01 3.832800000000000207e+00 3.780030000000000001e+00 6.402610000000000134e+00 3.492189999999999905e+00 9.014029999999999987e+00 6.723939999999999806e+00 3.498409999999999798e+00 9.789210000000000633e+00 4.411500000000000199e+00 9.238009999999999167e+00 3.887750000000000039e+00 2.016239999999999810e+00 9.432779999999999276e+00 3.653979999999999784e+00 6.713339999999999641e+00 8.766500000000000625e+00 9.501970000000000027e+00 1.001090000000000035e+00 8.874840000000000728e+00 8.922250000000000014e+00 6.498820000000000263e+00 1.198350000000000026e+00 5.980199999999999960e-01 3.252850000000000019e+00 1.200819999999999999e+00 7.117799999999999683e-01 8.601990000000000691e+00 1.850810000000000066e+00 6.401229999999999976e+00 4.056460000000000399e+00 9.318499999999999561e-01 5.820429999999999993e+00 8.536099999999999355e+00 6.675910000000000011e+00 6.293499999999999650e-01 3.556130000000000013e+00 6.448870000000000324e+00 1.081579999999999986e+00 9.081599999999999895e+00 6.204110000000000014e+00 6.079600000000000115e+00 3.575959999999999805e+00 6.136650000000000382e+00 6.448439999999999728e+00 8.902390000000000470e+00 1.275269999999999904e+00 4.610940000000000261e+00 1.131780000000000008e+00 1.299080000000000013e+00 3.919970000000000176e+00 6.125670000000000393e+00 1.237440000000000095e+00 9.816359999999999530e+00 1.373590000000000089e+00 8.862999999999999767e-01 9.710779999999999745e+00 6.190360000000000085e+00 6.914380000000000415e+00 4.190889999999999560e+00 1.228339999999999987e+00 6.579690000000000261e+00 4.046059999999999768e+00 6.724109999999999587e+00 6.200910000000000366e+00 9.295519999999999783e+00 1.152460000000000040e+00 6.279790000000000205e+00 9.848900000000000432e+00 6.256199999999999761e+00 1.695699999999999985e+00 3.226679999999999993e+00 3.770480000000000054e+00 1.616849999999999898e+00 3.366429999999999811e+00 8.632239999999999469e+00 7.526000000000000467e-01 8.755800000000000693e+00 4.009759999999999991e+00 8.815269999999999939e+00 7.107210000000000250e+00 9.039099999999999469e+00 6.771770000000000067e+00 3.660909999999999886e+00 3.821130000000000138e+00 7.077490000000000059e+00 3.771079999999999988e+00 9.107310000000000016e+00 6.421949999999999825e+00 9.038320000000000576e+00 3.646770000000000067e+00 6.958109999999999573e+00 9.369690000000000296e+00 8.882770000000000721e+00 1.436600000000000099e+00 1.563639999999999919e+00 9.524399999999999533e-01 1.666509999999999936e+00 1.129590000000000094e+00 6.046599999999999753e+00 1.315420000000000034e+00 7.528609999999999580e+00 1.449440000000000062e+00 1.118100000000000094e+00 7.210890000000000022e+00 6.200169999999999959e+00 6.803910000000000124e+00 1.408900000000000041e+00 1.209950000000000081e+00 6.806829999999999714e+00 1.441100000000000048e+00 6.291170000000000151e+00 6.500770000000000159e+00 6.741559999999999775e+00 1.023889999999999967e+00 6.530789999999999651e+00 7.083319999999999617e+00 6.228309999999999569e+00
6.757000000000000506e-02 2.279999999999999805e+00 2.365400000000000169e+00 3.955999999999999794e-02 2.430419999999999803e+00 7.574139999999999873e+00 8.044999999999999374e-02 7.642339999999999911e+00 2.307580000000000187e+00 1.019793999999999912e+01 7.937420000000000364e+00 7.503730000000000011e+00 4.931680000000000064e+00 2.399039999999999839e+00 2.319719999999999782e+00 4.969369999999999621e+00 2.174350000000000005e+00 7.548479999999999634e+00 5.210679999999999978e+00 7.883289999999999687e+00 2.607829999999999870e+00 5.254889999999999617e+00 7.989289999999999559e+00 7.840930000000000177e+00 2.602020000000000000e+00 5.216339999999999755e+00 2.379900000000000126e+00 2.742039999999999811e+00 5.161039999999999850e+00 7.240639999999999965e+00 2.769420000000000215e+00 1.009305999999999948e+01 2.512309999999999821e+00 2.530909999999999993e+00 1.029795999999999978e+01 7.575969999999999871e+00 7.757760000000000211e+00 5.170869999999999855e+00 2.244029999999999969e+00 7.690500000000000114e+00 5.363769999999999705e+00 7.595690000000000275e+00 7.806350000000000122e+00 1.056396999999999942e+01 2.673719999999999875e+00 7.754109999999999836e+00 3.618999999999999995e-02 7.853130000000000166e+00 2.494940000000000158e+00 2.391169999999999796e+00 4.941089999999999982e+00 2.701740000000000030e+00 2.444920000000000204e+00 9.865990000000000038e+00 2.635380000000000056e+00 7.554389999999999716e+00 4.869530000000000136e+00 2.726539999999999964e+00 7.735990000000000144e+00 9.973069999999999879e+00 7.560130000000000017e+00 2.635369999999999990e+00 4.983290000000000219e+00 7.544050000000000367e+00 2.734399999999999942e+00 1.002727999999999930e+01 7.617130000000000400e+00 7.716750000000000220e+00 5.003379999999999939e+00 7.689420000000000144e+00 7.627690000000000303e+00 1.010365000000000002e+01 1.007583999999999946e+01 1.278100000000000069e-01 5.047279999999999767e+00 9.470000000000000639e-02 1.044166000000000061e+01 1.470799999999999885e-01 1.746999999999999942e-02 5.044620000000000104e+00 5.124209999999999710e+00 2.735199999999999854e-01 5.188909999999999911e+00 1.010115000000000052e+01 5.327370000000000161e+00 1.039265999999999934e+01 5.080160000000000231e+00 5.382150000000000212e+00 1.044946000000000019e+01 5.192000000000000087e-02 5.283520000000000216e+00 4.859350000000000058e+00 4.878000000000000114e+00 4.886309999999999931e+00 4.836909999999999599e+00 9.702009999999999579e+00 3.593679999999999986e+00 4.047259999999999636e+00 3.768660000000000121e+00 3.540319999999999911e+00 3.773130000000000095e+00 8.614499999999999602e+00 3.940040000000000209e+00 9.399029999999999774e+00 3.934890000000000221e+00 3.974629999999999885e+00 9.171789999999999665e+00 9.099569999999999936e+00 9.060859999999999914e+00 4.107440000000000424e+00 3.502969999999999917e+00 8.804550000000000765e+00 4.145559999999999690e+00 8.656060000000000088e+00 9.005340000000000344e+00 9.503859999999999530e+00 3.917390000000000150e+00 4.000510000000000232e+00 6.722599999999999687e-01 1.235370000000000079e+00 3.643229999999999968e+00 1.085339999999999971e+00 6.367070000000000007e+00 3.829849999999999977e+00 6.094070000000000320e+00 6.066300000000000026e-01 3.814360000000000195e+00 6.101390000000000313e+00 5.722990000000000244e+00 9.079019999999999868e+00 6.962399999999999700e-01 1.328799999999999981e+00 8.782650000000000290e+00 9.192299999999999915e-01 6.467520000000000380e+00 9.060370000000000701e+00 6.165320000000000356e+00 9.981600000000000472e-01 8.970019999999999882e+00 6.150109999999999744e+00 6.055130000000000123e+00 3.845019999999999882e+00 1.446490000000000054e+00 3.694380000000000219e+00 3.844469999999999832e+00 1.231000000000000094e+00 8.769619999999999749e+00 3.497139999999999915e+00 6.849099999999999966e+00 3.267349999999999977e+00 3.772629999999999928e+00 6.601519999999999833e+00 8.286210000000000520e+00 8.850339999999999208e+00 1.585590000000000055e+00 3.744819999999999816e+00 9.011870000000000047e+00 1.208010000000000028e+00 8.816039999999999210e+00 8.788169999999999149e+00 7.019400000000000084e+00 3.505949999999999900e+00 8.850529999999999120e+00 7.071189999999999642e+00 8.610580000000000567e+00 3.983190000000000008e+00 3.464249999999999829e+00 9.919200000000000239e-01 3.980030000000000179e+00 3.551280000000000214e+00 6.364729999999999777e+00 3.997710000000000097e+00 8.894299999999999429e+00 1.411950000000000038e+00 3.863519999999999843e+00 8.673059999999999548e+00 6.363400000000000389e+00 9.089499999999999247e+00 3.464749999999999996e+00 1.090950000000000086e+00 9.185579999999999856e+00 3.387410000000000032e+00 6.076200000000000045e+00 9.266479999999999606e+00 8.716710000000000846e+00 1.090640000000000054e+00 8.691079999999999472e+00 8.904410000000000380e+00 6.455140000000000100e+00 1.041749999999999954e+00 6.717499999999999583e-01 3.364009999999999945e+00 1.213999999999999968e+00 1.085560000000000080e+00 8.750209999999999155e+00 1.044869999999999965e+00 5.892559999999999576e+00 3.483560000000000212e+00 1.148709999999999898e+00 6.053119999999999834e+00 8.507649999999999935e+00 6.572390000000000398e+00 8.950000000000000178e-01 3.837050000000000072e+00 6.434289999999999843e+00 1.175130000000000008e+00 9.004110000000000724e+00 6.195409999999999862e+00 6.218079999999999607e+00 3.927259999999999973e+00 6.374259999999999593e+00 6.476230000000000153e+00 9.019819999999999283e+00 1.643960000000000088e+00 4.218329999999999913e+00 9.892300000000000537e-01 1.474290000000000100e+00 4.011029999999999873e+00 6.231620000000000381e+00 1.426339999999999941e+00 9.371510000000000673e+00 8.982900000000000329e-01 1.490010000000000057e+00 9.436379999999999768e+00 6.103830000000000311e+00 6.399810000000000443e+00 4.228799999999999670e+00 8.897599999999999953e-01 6.604049999999999976e+00 4.229230000000000267e+00 6.118739999999999846e+00 6.388779999999999681e+00 9.165940000000000865e+00 1.595690000000000053e+00 6.320969999999999978e+00 9.828269999999999840e+00 6.728740000000000165e+00 1.149589999999999890e+00 3.302290000000000170e+00 3.775749999999999940e+00 9.434399999999999453e-01 3.413940000000000197e+00 8.901279999999999859e+00 1.381760000000000099e+00 8.717739999999999156e+00 3.382340000000000124e+00 1.618740000000000068e+00 8.641880000000000450e+00 8.544290000000000163e+00 6.422579999999999956e+00 3.612289999999999779e+00 3.547299999999999898e+00 6.108039999999999914e+00 3.753070000000000128e+00 8.567420000000000258e+00 6.122600000000000264e+00 8.695040000000000546e+00 4.325490000000000279e+00 6.572379999999999889e+00 9.082240000000000535e+00 9.148110000000000852e+00 1.400889999999999969e+00 1.527989999999999959e+00 1.038219999999999921e+00 1.101790000000000047e+00 1.424790000000000001e+00 6.049820000000000420e+00 1.353019999999999889e+00 6.621240000000000236e+00 9.691100000000000270e-01 1.202320000000000055e+00 6.753260000000000041e+00 5.972739999999999938e+00 6.363459999999999894e+00 1.452280000000000015e+00 1.189840000000000009e+00 6.037049999999999805e+00 1.799020000000000064e+00 5.960910000000000153e+00 6.580739999999999590e+00 6.781880000000000130e+00 1.323190000000000088e+00 6.175200000000000244e+00 6.996229999999999727e+00 6.422839999999999883e+00
1.031109999999999971e+01 2.338309999999999889e+00 2.606650000000000134e+00 1.632099999999999940e-01 3.223700000000000010e+00 7.992020000000000124e+00 1.027849999999999930e+01 7.735820000000000363e+00 2.281690000000000218e+00 4.796000000000000263e-02 8.337220000000000297e+00 7.662020000000000053e+00 5.429789999999999672e+00 2.118840000000000057e+00 2.563330000000000108e+00 5.198640000000000150e+00 2.592249999999999943e+00 7.922550000000000203e+00 5.512940000000000396e+00 7.375700000000000145e+00 2.431750000000000078e+00 5.150330000000000297e+00 7.966580000000000439e+00 7.939739999999999576e+00 2.819630000000000081e+00 5.104840000000000266e+00 2.427979999999999805e+00 2.513329999999999842e+00 5.026110000000000078e+00 7.829839999999999911e+00 3.096309999999999896e+00 1.039859000000000044e+01 2.586939999999999795e+00 2.276809999999999778e+00 3.007199999999999873e-01 7.859399999999999942e+00 7.833409999999999762e+00 4.920029999999999681e+00 2.331080000000000041e+00 7.570219999999999949e+00 5.708450000000000024e+00 7.975660000000000416e+00 7.985430000000000028e+00 1.067488999999999955e+01 2.439270000000000049e+00 7.890229999999999855e+00 1.083126999999999995e+01 7.622200000000000308e+00 2.598360000000000003e+00 2.178809999999999913e+00 5.125779999999999781e+00 2.817839999999999900e+00 2.521949999999999914e+00 1.936900000000000011e-01 2.387799999999999923e+00 7.579209999999999781e+00 4.694569999999999688e+00 2.948280000000000012e+00 7.795860000000000234e+00 1.009234999999999971e+01 7.743680000000000341e+00 2.330290000000000195e+00 5.573970000000000091e+00 8.041890000000000427e+00 3.203279999999999905e+00 9.921889999999999432e+00 7.962379999999999569e+00 8.107450000000000045e+00 4.758969999999999700e+00 8.316319999999999268e+00 8.296829999999999927e+00 1.031883999999999979e+01 1.036320000000000086e+01 1.031758999999999915e+01 5.314119999999999955e+00 1.022910000000000075e+01 9.607999999999999874e-02 1.038194000000000017e+01 1.015210000000000079e+01 5.031489999999999796e+00 4.933609999999999829e+00 3.070399999999999796e-01 5.308900000000000396e+00 4.714000000000000135e-02 5.247329999999999828e+00 1.050028999999999968e+01 5.060060000000000002e+00 5.316980000000000040e+00 1.080888999999999989e+01 1.007058999999999926e+01 5.172039999999999971e+00 4.838059999999999583e+00 5.014210000000000278e+00 5.037959999999999994e+00 5.020850000000000257e+00 1.035914000000000001e+01 3.492319999999999869e+00 4.013419999999999987e+00 3.998470000000000191e+00 6.234350000000000058e+00 9.344110000000000582e+00 9.268140000000000711e+00 4.911330000000000418e+00 9.466870000000000118e+00 2.675190000000000179e+00 4.054979999999999585e+00 1.085919999999999996e+00 8.781670000000000087e+00 8.924300000000000566e+00 3.710840000000000138e+00 3.798350000000000115e+00 9.036910000000000664e+00 4.499990000000000379e+00 8.953319999999999723e+00 9.412369999999999237e+00 9.166130000000000777e+00 3.819069999999999965e+00 3.755380000000000162e+00 9.048300000000000232e-01 1.184500000000000108e+00 3.752330000000000165e+00 3.976899999999999880e-01 6.306709999999999816e+00 3.960339999999999971e+00 6.092579999999999885e+00 9.050000000000000266e-01 3.048299999999999788e+00 6.213440000000000296e+00 6.083190000000000097e+00 8.954570000000000363e+00 1.287930000000000019e+00 1.355339999999999989e+00 8.940400000000000347e+00 9.204999999999999849e-01 6.419330000000000425e+00 9.198539999999999495e+00 6.743850000000000122e+00 7.616000000000000547e-01 9.113179999999999836e+00 6.223510000000000097e+00 6.358749999999999680e+00 3.821079999999999810e+00 1.173880000000000035e+00 3.907379999999999853e+00 3.952539999999999942e+00 3.816559999999999953e+00 9.142340000000000799e+00 4.013320000000000221e+00 6.404980000000000118e+00 3.403970000000000162e+00 4.135390000000000121e+00 6.426140000000000185e+00 9.233499999999999375e+00 9.710580000000000211e+00 9.960599999999999454e-01 3.699829999999999952e+00 9.343159999999999243e+00 1.863639999999999963e+00 9.049039999999999750e+00 8.925760000000000360e+00 6.441939999999999777e+00 3.639190000000000147e+00 6.456800000000000317e+00 6.978580000000000005e+00 9.291359999999999175e+00 4.482409999999999783e+00 3.651660000000000128e+00 1.421829999999999927e+00 3.669379999999999864e+00 3.247900000000000009e+00 6.850069999999999659e+00 3.924209999999999976e+00 9.218659999999999854e+00 2.727600000000000025e-01 3.496529999999999916e+00 8.740460000000000562e+00 7.938609999999999722e+00 9.906180000000000874e+00 4.125569999999999737e+00 1.329229999999999912e+00 9.025259999999999394e+00 3.705319999999999947e+00 6.305380000000000429e+00 1.000250999999999912e+01 9.414799999999999613e+00 1.226890000000000036e+00 7.992899999999999450e-01 1.027408999999999928e+01 7.283120000000000260e+00 1.687589999999999923e+00 5.732999999999999902e-02 4.038520000000000110e+00 1.559500000000000108e+00 1.300950000000000051e+00 9.549540000000000362e+00 1.222849999999999993e+00 5.984939999999999927e+00 3.592769999999999797e+00 8.865090000000000359e+00 7.475159999999999805e+00 8.482659999999999201e+00 6.541940000000000310e+00 1.294300000000000006e+00 4.098700000000000010e+00 6.723989999999999689e+00 1.151210000000000067e+00 8.911479999999999180e+00 6.470040000000000013e+00 7.004590000000000316e+00 4.263010000000000410e+00 9.024979999999999336e+00 9.278669999999999973e+00 6.517879999999999896e+00 1.716320000000000068e+00 4.165849999999999831e+00 1.000340000000000007e+00 9.464200000000000390e-01 4.849380000000000024e+00 6.580180000000000362e+00 1.519640000000000102e+00 6.586899999999999977e+00 9.685000000000000275e-01 3.678199999999999914e+00 8.905200000000000671e+00 5.060830000000000162e+00 6.981040000000000134e+00 3.372279999999999944e+00 1.390320000000000000e+00 6.121719999999999828e+00 3.500659999999999883e+00 6.230209999999999582e+00 7.288429999999999964e+00 8.548719999999999430e+00 1.990739999999999954e+00 6.296499999999999986e+00 8.903800000000000381e+00 6.508700000000000152e+00 9.635099999999999776e-01 3.235640000000000072e+00 3.919410000000000061e+00 1.393920000000000048e+00 3.897819999999999840e+00 9.232200000000000628e+00 1.740180000000000060e+00 8.404859999999999332e+00 2.811220000000000052e+00 1.407620000000000093e+00 9.290459999999999496e+00 9.565590000000000259e+00 6.180279999999999774e+00 3.866029999999999855e+00 3.755539999999999878e+00 6.451740000000000030e+00 4.267249999999999766e+00 9.007809999999999206e+00 7.271180000000000199e+00 9.817190000000000083e+00 4.172010000000000218e+00 9.229710000000000747e+00 9.731690000000000396e+00 8.842389999999999972e+00 1.200280000000000014e+00 8.907899999999999707e-01 1.678930000000000033e+00 1.343539999999999957e+00 1.918120000000000047e+00 6.750609999999999999e+00 1.471479999999999899e+00 6.511759999999999771e+00 8.703340000000000742e+00 8.831299999999999706e-01 8.244780000000000442e+00 5.781480000000000175e+00 6.648889999999999745e+00 8.148400000000000087e-01 1.391890000000000072e+00 6.312969999999999970e+00 8.710999999999999854e-01 6.564239999999999853e+00 6.496159999999999712e+00 6.034189999999999721e+00 1.540780000000000038e+00 6.032040000000000290e+00 6.258160000000000167e+00 7.007939999999999614e+00
2.968500000000000028e-01 2.370760000000000201e+00 2.453939999999999788e+00 9.106999999999999817e-02 2.603990000000000027e+00 7.336070000000000313e+00 1.863599999999999979e-01 8.221629999999999328e+00 2.311459999999999848e+00 1.036538000000000004e+01 7.540049999999999919e+00 7.577890000000000015e+00 5.202600000000000335e+00 2.276339999999999808e+00 2.635580000000000034e+00 5.203710000000000058e+00 2.493729999999999780e+00 7.883230000000000182e+00 5.182509999999999728e+00 7.967130000000000045e+00 2.523699999999999832e+00 5.109340000000000437e+00 8.067059999999999675e+00 7.815680000000000405e+00 2.570679999999999854e+00 5.767640000000000100e+00 2.751279999999999948e+00 2.704569999999999919e+00 5.374810000000000088e+00 7.542749999999999844e+00 2.693680000000000074e+00 1.064051000000000080e+01 2.401050000000000129e+00 2.886629999999999807e+00 1.053890999999999956e+01 7.564110000000000333e+00 7.974859999999999616e+00 5.404119999999999813e+00 2.281489999999999796e+00 7.902350000000000207e+00 5.393769999999999953e+00 7.564860000000000362e+00 7.842200000000000060e+00 1.326199999999999879e-01 2.385730000000000128e+00 7.735030000000000072e+00 1.073540999999999990e+01 7.699460000000000193e+00 2.696619999999999795e+00 2.848149999999999959e+00 5.134000000000000341e+00 2.712190000000000101e+00 2.826179999999999914e+00 1.017231999999999914e+01 2.902569999999999872e+00 7.923689999999999678e+00 5.215830000000000410e+00 2.346000000000000085e+00 7.931510000000000282e+00 1.021002000000000010e+01 7.619799999999999685e+00 2.466369999999999951e+00 5.170189999999999841e+00 8.029609999999999914e+00 2.404059999999999864e+00 2.115499999999999881e-01 8.007720000000000837e+00 8.052680000000000504e+00 5.101420000000000066e+00 7.738610000000000433e+00 7.832530000000000214e+00 1.028462000000000032e+01 1.427900000000000003e-01 1.058961000000000041e+01 5.247270000000000323e+00 1.404700000000000115e-01 8.795000000000000040e-02 1.010515999999999970e+01 1.025665000000000049e+01 4.964929999999999843e+00 4.712200000000000166e+00 1.032745000000000068e+01 4.930670000000000108e+00 1.982000000000000081e-02 5.337030000000000385e+00 1.027161000000000080e+01 5.198809999999999931e+00 5.143740000000000201e+00 1.039891000000000076e+01 1.031432000000000038e+01 5.249900000000000233e+00 5.224779999999999980e+00 5.076699999999999768e+00 5.270470000000000432e+00 4.862800000000000011e+00 1.948300000000000032e-01 3.475039999999999907e+00 4.386300000000000310e+00 3.756759999999999877e+00 3.842830000000000190e+00 4.161570000000000213e+00 9.113160000000000593e+00 3.940549999999999997e+00 9.617190000000000794e+00 3.731399999999999828e+00 3.976659999999999862e+00 9.423000000000000043e+00 9.085319999999999396e+00 9.032339999999999591e+00 3.760769999999999946e+00 3.509700000000000042e+00 8.995160000000000267e+00 4.209529999999999994e+00 8.845860000000000056e+00 9.260229999999999961e+00 9.240800000000000125e+00 3.890299999999999869e+00 3.703780000000000072e+00 6.515300000000000535e-01 9.435499999999999998e-01 4.380379999999999718e+00 9.905500000000000416e-01 6.422200000000000131e+00 4.039939999999999642e+00 5.821959999999999802e+00 1.561770000000000103e+00 4.396829999999999572e+00 6.320520000000000138e+00 6.533290000000000042e+00 6.853340000000000209e+00 1.495009999999999950e+00 1.329539999999999944e+00 9.394519999999999982e+00 7.368500000000000050e-01 6.719369999999999621e+00 8.936510000000000176e+00 6.353810000000000180e+00 8.871499999999999941e-01 9.051940000000000097e+00 6.398620000000000196e+00 6.174389999999999823e+00 3.843240000000000212e+00 1.349760000000000071e+00 3.713429999999999787e+00 3.663580000000000059e+00 1.407629999999999937e+00 8.859360000000000568e+00 4.067840000000000344e+00 6.929459999999999731e+00 3.924999999999999822e+00 3.521459999999999813e+00 7.011120000000000019e+00 9.032510000000000261e+00 8.723459999999999326e+00 8.952700000000000102e-01 4.367259999999999920e+00 9.072689999999999699e+00 1.779449999999999976e+00 8.988640000000000185e+00 9.233869999999999578e+00 6.723939999999999806e+00 3.644709999999999894e+00 8.826449999999999463e+00 6.831159999999999677e+00 8.672370000000000800e+00 4.077860000000000262e+00 3.319209999999999994e+00 1.226169999999999982e+00 3.812889999999999890e+00 4.030490000000000350e+00 6.418389999999999596e+00 3.760850000000000026e+00 8.977309999999999235e+00 1.033320000000000016e+00 4.044740000000000002e+00 9.050720000000000098e+00 6.234370000000000189e+00 9.387800000000000367e+00 3.525300000000000100e+00 1.265930000000000000e+00 8.931599999999999540e+00 3.748120000000000118e+00 6.353860000000000063e+00 9.069440000000000168e+00 9.057969999999999189e+00 1.221710000000000074e+00 9.803589999999999804e+00 8.953730000000000189e+00 6.398060000000000080e+00 1.349979999999999958e+00 1.197640000000000038e+00 3.614949999999999886e+00 1.358630000000000004e+00 6.346800000000000219e-01 8.398139999999999716e+00 1.627820000000000045e+00 5.903389999999999915e+00 4.525430000000000064e+00 9.690699999999999870e-01 6.174909999999999677e+00 9.165520000000000778e+00 6.176689999999999792e+00 4.869299999999999740e-01 3.677799999999999958e+00 6.447479999999999656e+00 9.075440000000000396e+00 9.068870000000000431e+00 6.791419999999999568e+00 5.583619999999999806e+00 3.745769999999999822e+00 5.957589999999999719e+00 6.587399999999999700e+00 9.046789999999999665e+00 1.519269999999999898e+00 4.302279999999999660e+00 1.212890000000000024e+00 8.337999999999999856e-01 4.127970000000000361e+00 6.261930000000000440e+00 1.362870000000000026e+00 9.637869999999999493e+00 1.156139999999999946e+00 1.749330000000000052e+00 9.737750000000000128e+00 6.097109999999999808e+00 6.775100000000000122e+00 3.778919999999999835e+00 1.451019999999999976e+00 6.516890000000000072e+00 3.778709999999999791e+00 6.798250000000000348e+00 6.460069999999999979e+00 9.835330000000000794e+00 1.317720000000000002e+00 6.756750000000000256e+00 9.059870000000000090e+00 6.530619999999999870e+00 1.275260000000000060e+00 3.547039999999999971e+00 3.788670000000000204e+00 1.527970000000000050e+00 3.470330000000000137e+00 8.603770000000000806e+00 1.530860000000000110e+00 8.623670000000000613e+00 3.559050000000000047e+00 8.953200000000000047e-01 8.877810000000000201e+00 9.049879999999999924e+00 6.012159999999999727e+00 3.239930000000000199e+00 4.150420000000000442e+00 6.250020000000000131e+00 3.500890000000000057e+00 9.530640000000000001e+00 6.614289999999999559e+00 8.474360000000000781e+00 3.882099999999999884e+00 8.827159999999999229e+00 9.807219999999999160e+00 9.269019999999999371e+00 1.229440000000000088e+00 1.727449999999999930e+00 6.585900000000000087e-01 1.440560000000000063e+00 1.581599999999999895e+00 6.235839999999999606e+00 1.448159999999999892e+00 6.981189999999999785e+00 1.440390000000000059e+00 1.761470000000000091e+00 7.037160000000000082e+00 6.757620000000000182e+00 6.275649999999999729e+00 8.745399999999999840e-01 8.856740000000000279e+00 7.058270000000000266e+00 8.986100000000000199e-01 6.011420000000000208e+00 6.476919999999999789e+00 6.903900000000000148e+00 1.318540000000000045e+00 6.864489999999999981e+00 6.439869999999999983e+00 6.289950000000000152e+00