1.006150000000000055e+01 2.631250000000000089e+00 2.311300000000000132e+00 1.005899999999999928e+01 2.610879999999999868e+00 7.407289999999999708e+00 1.009872999999999976e+01 7.897829999999999906e+00 2.349149999999999849e+00 1.008840000000000003e+01 7.890320000000000000e+00 7.425169999999999604e+00 5.053729999999999833e+00 2.534299999999999997e+00 2.337969999999999882e+00 4.929210000000000313e+00 2.607520000000000060e+00 7.438600000000000101e+00 5.017809999999999881e+00 7.992460000000000342e+00 2.335739999999999927e+00 5.081889999999999574e+00 7.921630000000000393e+00 7.448389999999999844e+00 2.535219999999999807e+00 4.839870000000000339e+00 2.380139999999999922e+00 2.510209999999999830e+00 4.902210000000000178e+00 7.350979999999999848e+00 2.456370000000000164e+00 1.014475999999999978e+01 2.481199999999999850e+00 2.524059999999999970e+00 1.018595999999999968e+01 7.322879999999999612e+00 7.619489999999999874e+00 4.899390000000000356e+00 2.363589999999999858e+00 7.498099999999999987e+00 4.726359999999999673e+00 7.454539999999999722e+00 7.574049999999999727e+00 1.019215999999999944e+01 2.298849999999999838e+00 7.631219999999999892e+00 1.022405999999999970e+01 7.409749999999999837e+00 2.510940000000000172e+00 2.302329999999999988e+00 5.091249999999999609e+00 2.420939999999999870e+00 2.262329999999999952e+00 1.011622000000000021e+01 2.569580000000000197e+00 7.485719999999999708e+00 5.041030000000000122e+00 2.593350000000000044e+00 7.432030000000000136e+00 9.998530000000000584e+00 7.700099999999999945e+00 2.318189999999999973e+00 5.004509999999999792e+00 7.590279999999999916e+00 2.253509999999999902e+00 8.243999999999999939e-02 7.512410000000000032e+00 7.473880000000000301e+00 5.185559999999999725e+00 7.621089999999999698e+00 7.553340000000000387e+00 8.601999999999999924e-02 1.008600000000000030e+01 5.359680000000000000e+00 5.049760000000000026e+00 2.929999999999999966e-02 5.312929999999999708e+00 1.011289999999999978e+01 -1.898000000000000034e-02 -1.570999999999999827e-02 5.048820000000000086e+00 -1.242000000000000048e-02 -3.028000000000000136e-02 1.000951000000000057e+01 5.145120000000000360e+00 5.235120000000000218e+00 5.018709999999999560e+00 5.110599999999999810e+00 5.219190000000000218e+00 1.009821999999999953e+01 5.058489999999999931e+00 1.055900000000000033e-01 5.075680000000000192e+00 4.975690000000000168e+00 -3.980999999999999817e-02 1.008131999999999984e+01 4.373199999999999754e+00 4.361670000000000158e+00 3.280699999999999950e+00 4.358369999999999855e+00 4.273620000000000196e+00 8.395379999999999399e+00 4.386479999999999713e+00 9.706020000000000536e+00 3.290439999999999809e+00 4.379649999999999821e+00 9.582700000000000884e+00 8.375019999999999243e+00 9.437430000000000874e+00 4.383029999999999760e+00 3.268400000000000194e+00 9.362140000000000128e+00 4.375700000000000145e+00 8.429629999999999512e+00 9.480900000000000105e+00 9.635740000000000194e+00 3.271729999999999805e+00 9.436820000000000874e+00 9.696910000000000807e+00 8.272909999999999542e+00 3.858839999999999826e+00 1.000539999999999985e+00 1.382589999999999986e+00 3.807679999999999954e+00 1.122479999999999922e+00 6.363220000000000098e+00 3.790059999999999985e+00 6.329110000000000014e+00 1.386269999999999891e+00 3.748050000000000104e+00 6.301449999999999996e+00 6.356690000000000396e+00 8.861769999999999925e+00 1.088049999999999962e+00 1.351839999999999931e+00 8.866709999999999425e+00 1.071309999999999985e+00 6.479470000000000063e+00 8.918089999999999407e+00 6.291900000000000048e+00 1.376689999999999969e+00 8.806720000000000326e+00 6.246279999999999610e+00 6.451389999999999958e+00 4.285040000000000404e+00 1.756240000000000023e+00 3.988820000000000032e+00 4.085449999999999804e+00 1.624819999999999931e+00 9.045149999999999579e+00 4.434040000000000425e+00 6.911629999999999718e+00 4.006529999999999703e+00 4.362230000000000274e+00 6.909720000000000084e+00 9.149499999999999744e+00 9.405680000000000263e+00 1.653639999999999999e+00 3.970829999999999860e+00 9.293260000000000076e+00 1.750969999999999915e+00 9.066800000000000637e+00 9.402590000000000003e+00 7.030730000000000146e+00 3.986839999999999939e+00 9.439249999999999474e+00 7.102420000000000400e+00 9.221500000000000696e+00 3.740470000000000184e+00 3.659909999999999997e+00 9.059700000000000530e-01 3.752619999999999845e+00 3.713140000000000107e+00 5.962650000000000006e+00 3.593700000000000117e+00 8.962320000000000064e+00 9.181300000000000017e-01 3.776539999999999786e+00 9.057940000000000325e+00 6.022920000000000051e+00 1.814980000000000038e+00 5.066599999999999993e-01 4.202250000000000263e+00 1.751630000000000020e+00 5.160799999999999832e-01 9.105869999999999465e+00 1.873629999999999907e+00 5.816390000000000171e+00 4.076349999999999696e+00 1.830000000000000071e+00 5.848629999999999995e+00 8.951499999999999346e+00 6.850290000000000212e+00 5.485700000000000021e-01 4.024930000000000341e+00 6.833999999999999631e+00 4.623900000000000232e-01 9.183030000000000470e+00 7.063869999999999649e+00 5.733179999999999943e+00 4.140019999999999811e+00 6.841190000000000104e+00 5.797369999999999912e+00 9.079570000000000363e+00 1.082119999999999971e+00 3.704670000000000130e+00 9.758499999999999952e-01 1.118270000000000097e+00 3.846659999999999968e+00 6.002139999999999809e+00 1.052669999999999995e+00 9.192130000000000578e+00 1.093520000000000048e+00 1.257300000000000084e+00 9.150959999999999539e+00 5.988940000000000374e+00 6.295209999999999972e+00 3.791900000000000048e+00 9.826099999999999834e-01 6.439140000000000086e+00 3.780520000000000103e+00 5.893779999999999575e+00 6.232389999999999652e+00 9.077640000000000597e+00 9.884600000000000053e-01 6.415130000000000443e+00 9.157080000000000553e+00 6.102850000000000108e+00 1.849339999999999984e+00 3.114180000000000170e+00 3.359319999999999862e+00 1.774280000000000079e+00 3.219279999999999919e+00 8.422459999999999170e+00 1.852570000000000050e+00 8.377720000000000056e+00 3.268710000000000004e+00 1.796659999999999924e+00 8.537869999999999848e+00 8.400999999999999801e+00 6.873879999999999768e+00 3.111860000000000070e+00 3.269779999999999909e+00 6.720309999999999562e+00 3.181169999999999831e+00 8.519740000000000535e+00 6.856650000000000134e+00 8.405120000000000147e+00 3.408469999999999889e+00 6.915320000000000356e+00 8.376939999999999387e+00 8.468799999999999883e+00 1.281970000000000054e+00 1.178730000000000055e+00 1.414639999999999898e+00 1.247900000000000009e+00 1.105869999999999909e+00 6.524230000000000196e+00 1.327690000000000037e+00 6.469590000000000174e+00 1.297900000000000054e+00 1.198679999999999968e+00 6.516429999999999723e+00 6.363669999999999938e+00 6.376719999999999722e+00 1.205559999999999965e+00 1.382249999999999979e+00 6.364919999999999689e+00 1.265149999999999997e+00 6.420749999999999957e+00 6.398710000000000342e+00 6.426989999999999981e+00 1.431410000000000071e+00 6.290040000000000298e+00 6.463260000000000005e+00 6.476130000000000386e+00
1.005739999999999945e+01 2.637770000000000170e+00 2.364370000000000083e+00 1.007360000000000078e+01 2.702479999999999993e+00 7.381870000000000154e+00 8.260000000000000675e-02 7.894560000000000244e+00 2.353029999999999955e+00 1.005470000000000041e+01 7.830449999999999910e+00 7.418520000000000003e+00 5.081150000000000055e+00 2.658539999999999903e+00 2.387970000000000148e+00 5.000169999999999781e+00 2.514759999999999884e+00 7.370449999999999946e+00 5.075899999999999856e+00 7.787630000000000052e+00 2.399169999999999803e+00 5.043309999999999960e+00 7.934239999999999959e+00 7.445759999999999934e+00 2.571419999999999817e+00 4.878449999999999953e+00 2.350420000000000176e+00 2.493409999999999904e+00 4.913389999999999702e+00 7.361830000000000318e+00 2.632140000000000146e+00 1.022584999999999944e+01 2.300419999999999909e+00 2.420700000000000074e+00 1.010004999999999953e+01 7.406460000000000043e+00 7.617689999999999628e+00 4.891219999999999679e+00 2.379760000000000097e+00 7.618660000000000210e+00 4.829570000000000363e+00 7.404630000000000045e+00 7.633070000000000022e+00 1.008004999999999995e+01 2.398280000000000189e+00 7.632859999999999978e+00 1.018565000000000076e+01 7.351709999999999745e+00 2.456859999999999822e+00 2.232559999999999878e+00 5.021469999999999878e+00 2.507960000000000189e+00 2.311529999999999863e+00 1.003210999999999942e+01 2.460150000000000059e+00 7.521950000000000358e+00 4.974980000000000402e+00 2.583219999999999850e+00 7.495350000000000179e+00 1.010331000000000046e+01 7.533360000000000056e+00 2.326309999999999878e+00 5.093140000000000001e+00 7.558900000000000396e+00 2.164130000000000109e+00 1.119999999999999902e-03 7.522579999999999600e+00 7.563589999999999591e+00 5.083719999999999573e+00 7.608089999999999797e+00 7.576369999999999827e+00 4.188000000000000056e-02 6.367000000000000437e-02 5.280350000000000321e+00 5.043090000000000295e+00 1.008590000000000053e+01 5.302410000000000068e+00 3.844000000000000195e-02 9.952489999999999171e+00 6.205999999999999711e-02 5.029180000000000206e+00 6.303999999999999881e-02 1.308999999999999921e-02 1.376999999999999925e-02 5.033929999999999794e+00 5.298219999999999708e+00 5.067400000000000126e+00 5.092279999999999696e+00 5.174360000000000070e+00 1.005480999999999980e+01 4.989379999999999704e+00 -2.146999999999999950e-02 5.072040000000000326e+00 4.890139999999999709e+00 2.187000000000000055e-02 1.010744000000000042e+01 4.339870000000000339e+00 4.459730000000000416e+00 3.390559999999999796e+00 4.260620000000000296e+00 4.273799999999999599e+00 8.448520000000000252e+00 4.310640000000000249e+00 9.646440000000000126e+00 3.342989999999999906e+00 4.261949999999999683e+00 9.661070000000000491e+00 8.394220000000000681e+00 9.460200000000000387e+00 4.463390000000000413e+00 3.287230000000000096e+00 9.637199999999999989e+00 4.523419999999999774e+00 8.241379999999999484e+00 9.442320000000000491e+00 9.630559999999999121e+00 3.260769999999999946e+00 9.568609999999999616e+00 9.721199999999999619e+00 8.324840000000000018e+00 3.763549999999999951e+00 1.078300000000000036e+00 1.409810000000000008e+00 3.636470000000000091e+00 1.007260000000000044e+00 6.466999999999999638e+00 3.840549999999999908e+00 6.294640000000000235e+00 1.328869999999999996e+00 3.723840000000000039e+00 6.358290000000000219e+00 6.420440000000000147e+00 8.866419999999999746e+00 1.136239999999999917e+00 1.383219999999999894e+00 8.805999999999999162e+00 1.076650000000000107e+00 6.527160000000000295e+00 8.877639999999999532e+00 6.334909999999999819e+00 1.476879999999999971e+00 8.794480000000000075e+00 6.277650000000000396e+00 6.322129999999999583e+00 4.462880000000000180e+00 1.818650000000000100e+00 4.064199999999999591e+00 4.298370000000000246e+00 1.724809999999999954e+00 9.138690000000000424e+00 4.408500000000000085e+00 7.093219999999999636e+00 4.166280000000000427e+00 4.428770000000000095e+00 7.040479999999999627e+00 9.133910000000000196e+00 9.508089999999999264e+00 1.915659999999999918e+00 4.181040000000000312e+00 9.345900000000000318e+00 1.806389999999999940e+00 9.100730000000000430e+00 9.607219999999999871e+00 7.153739999999999988e+00 4.110859999999999737e+00 9.459580000000000766e+00 7.111340000000000217e+00 9.178480000000000416e+00 3.775619999999999976e+00 3.693109999999999893e+00 9.890099999999999447e-01 3.792800000000000171e+00 3.659120000000000150e+00 6.061410000000000409e+00 3.883929999999999882e+00 8.954390000000000072e+00 9.856800000000000006e-01 3.686319999999999819e+00 8.925440000000000040e+00 6.047250000000000014e+00 1.857320000000000082e+00 5.081799999999999651e-01 3.962239999999999984e+00 1.866309999999999913e+00 4.096799999999999886e-01 9.135229999999999961e+00 1.824400000000000022e+00 5.787060000000000315e+00 3.978979999999999961e+00 2.034370000000000012e+00 5.650129999999999875e+00 9.169729999999999492e+00 6.933119999999999727e+00 5.003999999999999559e-01 4.157709999999999795e+00 6.903310000000000279e+00 4.648900000000000254e-01 9.128489999999999327e+00 6.869559999999999889e+00 5.820260000000000211e+00 4.055310000000000414e+00 7.046590000000000131e+00 5.693810000000000038e+00 9.141740000000000421e+00 1.143850000000000033e+00 3.835329999999999906e+00 1.018119999999999914e+00 1.231470000000000065e+00 3.902229999999999865e+00 6.002369999999999983e+00 1.277330000000000076e+00 9.063599999999999213e+00 9.833399999999999919e-01 9.959200000000000275e-01 9.109640000000000626e+00 6.023990000000000400e+00 6.408079999999999998e+00 3.739349999999999952e+00 1.014259999999999939e+00 6.276769999999999960e+00 3.826849999999999863e+00 6.002220000000000333e+00 6.402929999999999566e+00 9.098959999999999937e+00 9.511300000000000310e-01 6.284340000000000259e+00 9.144000000000000128e+00 6.036340000000000039e+00 1.819819999999999993e+00 3.077189999999999870e+00 3.286799999999999944e+00 1.779530000000000056e+00 3.104729999999999990e+00 8.323880000000000834e+00 1.976250000000000062e+00 8.435449999999999449e+00 3.284749999999999837e+00 1.869250000000000078e+00 8.325340000000000629e+00 8.385780000000000456e+00 6.816010000000000346e+00 3.188019999999999854e+00 3.398899999999999810e+00 6.842509999999999870e+00 3.143260000000000165e+00 8.433329999999999771e+00 6.910230000000000317e+00 8.356700000000000017e+00 3.232920000000000016e+00 7.059680000000000177e+00 8.412369999999999237e+00 8.353730000000000544e+00 1.209670000000000023e+00 1.235999999999999988e+00 1.212309999999999999e+00 1.174670000000000103e+00 1.200169999999999959e+00 6.381899999999999906e+00 1.339399999999999924e+00 6.474389999999999645e+00 1.255379999999999940e+00 1.266380000000000061e+00 6.427730000000000388e+00 6.455729999999999968e+00 6.269359999999999822e+00 1.182360000000000078e+00 1.341939999999999911e+00 6.211450000000000138e+00 1.145659999999999901e+00 6.515399999999999636e+00 6.405649999999999622e+00 6.423630000000000173e+00 1.307399999999999896e+00 6.232029999999999959e+00 6.460230000000000139e+00 6.478609999999999758e+00
1.007489999999999952e+01 2.694519999999999804e+00 2.404630000000000045e+00 1.001989999999999981e+01 2.648550000000000182e+00 7.367720000000000269e+00 1.009980000000000011e+01 7.852660000000000196e+00 2.331550000000000011e+00 1.000831999999999944e+01 7.778699999999999726e+00 7.343020000000000103e+00 5.010900000000000354e+00 2.570279999999999898e+00 2.305619999999999781e+00 5.023859999999999992e+00 2.684309999999999974e+00 7.406509999999999927e+00 4.997959999999999958e+00 7.951069999999999638e+00 2.327560000000000073e+00 5.142400000000000304e+00 7.796289999999999942e+00 7.389190000000000147e+00 2.541030000000000122e+00 4.987009999999999721e+00 2.295549999999999979e+00 2.521030000000000104e+00 4.860269999999999868e+00 7.412659999999999805e+00 2.489329999999999821e+00 1.019444999999999979e+01 2.413910000000000000e+00 2.569850000000000190e+00 1.000496000000000052e+01 7.434020000000000294e+00 7.461020000000000429e+00 4.893349999999999866e+00 2.354969999999999786e+00 7.611449999999999605e+00 4.878090000000000259e+00 7.475089999999999790e+00 7.669179999999999886e+00 1.015094999999999992e+01 2.371509999999999785e+00 7.596529999999999561e+00 1.015574999999999939e+01 7.325440000000000396e+00 2.524080000000000101e+00 2.302029999999999799e+00 5.018830000000000346e+00 2.410969999999999835e+00 2.191500000000000004e+00 1.007371000000000016e+01 2.494450000000000056e+00 7.543910000000000338e+00 5.070459999999999745e+00 2.549360000000000070e+00 7.536469999999999558e+00 1.001920999999999928e+01 7.543739999999999668e+00 2.300040000000000084e+00 5.040759999999999685e+00 7.461140000000000327e+00 2.160140000000000171e+00 1.010877999999999943e+01 7.629780000000000229e+00 7.499100000000000321e+00 5.084369999999999834e+00 7.650619999999999976e+00 7.631000000000000227e+00 9.137000000000000677e-02 2.478999999999999954e-02 5.329930000000000057e+00 5.049129999999999896e+00 7.893000000000000016e-02 5.243280000000000385e+00 1.771999999999999964e-02 4.691000000000000031e-02 -9.010000000000000647e-03 5.118579999999999686e+00 -7.230000000000000315e-03 1.048858000000000068e+01 1.009760999999999953e+01 5.047410000000000174e+00 5.277610000000000134e+00 5.074390000000000178e+00 5.070789999999999687e+00 5.257830000000000226e+00 1.009191000000000038e+01 5.045560000000000045e+00 -1.920000000000000049e-03 5.065970000000000084e+00 4.976110000000000255e+00 2.960000000000000131e-02 1.008400999999999925e+01 4.349210000000000242e+00 4.372069999999999901e+00 3.335869999999999891e+00 4.300980000000000025e+00 4.327230000000000132e+00 8.405250000000000554e+00 4.283170000000000144e+00 9.718989999999999796e+00 3.350400000000000045e+00 4.435539999999999594e+00 9.651709999999999567e+00 8.290900000000000603e+00 9.365780000000000882e+00 4.420770000000000088e+00 3.375919999999999810e+00 9.470900000000000318e+00 4.524339999999999584e+00 8.304700000000000415e+00 9.454060000000000130e+00 9.602880000000000749e+00 3.353959999999999830e+00 9.448819999999999553e+00 9.603300000000000836e+00 8.359099999999999753e+00 3.653020000000000156e+00 1.084629999999999983e+00 1.366630000000000011e+00 3.831139999999999990e+00 1.081099999999999950e+00 6.525050000000000239e+00 3.771220000000000017e+00 6.372600000000000264e+00 1.406490000000000018e+00 3.763920000000000154e+00 6.257010000000000183e+00 6.477369999999999628e+00 8.832489999999999952e+00 8.748200000000000420e-01 1.310859999999999914e+00 8.802089999999999748e+00 1.032859999999999889e+00 6.358880000000000088e+00 8.895089999999999719e+00 6.201399999999999579e+00 1.425859999999999905e+00 8.789379999999999526e+00 6.298849999999999838e+00 6.435319999999999929e+00 4.305629999999999846e+00 1.715389999999999970e+00 4.041019999999999612e+00 4.408419999999999561e+00 1.743870000000000031e+00 9.175489999999999924e+00 4.461310000000000109e+00 6.941290000000000404e+00 4.027980000000000338e+00 4.354510000000000325e+00 6.972019999999999662e+00 9.185499999999999332e+00 9.345710000000000406e+00 1.800200000000000022e+00 4.093880000000000408e+00 9.348509999999999209e+00 1.877140000000000031e+00 9.074299999999999145e+00 9.432790000000000674e+00 7.024280000000000079e+00 4.114270000000000316e+00 9.316789999999999239e+00 7.086739999999999817e+00 9.158319999999999794e+00 3.812959999999999905e+00 3.763990000000000169e+00 9.234200000000000186e-01 3.769769999999999843e+00 3.732909999999999950e+00 5.988069999999999560e+00 3.792689999999999895e+00 9.084659999999999513e+00 8.923100000000000476e-01 3.724509999999999987e+00 8.918319999999999581e+00 6.108369999999999855e+00 1.796319999999999917e+00 5.936599999999999655e-01 3.998639999999999972e+00 1.823460000000000081e+00 4.454400000000000026e-01 9.182180000000000675e+00 1.872710000000000097e+00 5.827280000000000015e+00 4.083560000000000301e+00 1.959279999999999911e+00 5.767859999999999765e+00 9.049400000000000333e+00 6.918350000000000222e+00 4.245599999999999929e-01 4.151939999999999742e+00 6.995800000000000018e+00 4.761199999999999877e-01 9.169879999999999143e+00 6.970340000000000202e+00 5.729759999999999742e+00 4.083630000000000315e+00 6.918490000000000251e+00 5.704060000000000130e+00 9.136739999999999640e+00 1.249270000000000103e+00 3.807269999999999932e+00 9.847200000000000397e-01 1.291660000000000030e+00 3.922260000000000080e+00 6.068920000000000314e+00 1.329350000000000032e+00 9.189849999999999852e+00 8.911000000000000032e-01 1.186309999999999976e+00 9.144980000000000331e+00 5.959979999999999833e+00 6.427730000000000388e+00 3.741289999999999782e+00 9.578900000000000192e-01 6.379290000000000127e+00 3.786430000000000184e+00 6.063380000000000436e+00 6.452910000000000146e+00 9.216350000000000264e+00 1.001379999999999937e+00 6.388110000000000177e+00 9.040839999999999321e+00 5.976539999999999964e+00 1.819129999999999914e+00 3.162209999999999965e+00 3.386060000000000070e+00 1.660029999999999895e+00 3.138349999999999973e+00 8.471270000000000522e+00 1.953170000000000073e+00 8.360730000000000217e+00 3.269239999999999924e+00 1.881739999999999968e+00 8.292519999999999669e+00 8.329129999999999256e+00 6.685999999999999943e+00 3.164039999999999964e+00 3.394750000000000156e+00 6.779499999999999638e+00 3.142700000000000049e+00 8.438990000000000435e+00 6.860929999999999751e+00 8.377499999999999503e+00 3.334589999999999943e+00 6.999799999999999578e+00 8.346640000000000725e+00 8.351319999999999411e+00 1.191149999999999931e+00 1.203389999999999960e+00 1.425669999999999993e+00 1.243579999999999908e+00 1.290559999999999929e+00 6.376129999999999853e+00 1.310640000000000027e+00 6.519560000000000244e+00 1.290750000000000064e+00 1.265570000000000084e+00 6.513340000000000352e+00 6.380679999999999907e+00 6.236040000000000028e+00 1.147429999999999950e+00 1.384269999999999889e+00 6.303410000000000402e+00 1.240490000000000093e+00 6.419369999999999798e+00 6.339339999999999975e+00 6.461170000000000080e+00 1.374239999999999906e+00 6.261860000000000426e+00 6.291210000000000413e+00 6.527519999999999989e+00
3.538000000000000173e-02 2.666760000000000019e+00 2.334039999999999893e+00 1.003824999999999967e+01 2.605379999999999807e+00 7.237770000000000259e+00 1.008735000000000070e+01 7.806060000000000443e+00 2.233239999999999892e+00 1.004385000000000083e+01 7.718230000000000146e+00 7.349949999999999761e+00 5.085679999999999978e+00 2.716159999999999908e+00 2.353299999999999947e+00 5.098539999999999850e+00 2.639749999999999819e+00 7.398209999999999731e+00 5.112770000000000259e+00 7.747910000000000075e+00 2.443519999999999914e+00 4.939930000000000376e+00 7.849470000000000169e+00 7.546249999999999680e+00 2.490040000000000031e+00 4.938419999999999810e+00 2.379830000000000112e+00 2.529469999999999885e+00 4.822689999999999699e+00 7.435089999999999755e+00 2.545459999999999834e+00 1.010947999999999958e+01 2.306939999999999991e+00 2.591540000000000177e+00 1.023498000000000019e+01 7.324810000000000265e+00 7.639339999999999797e+00 5.024580000000000268e+00 2.443709999999999827e+00 7.623440000000000438e+00 4.878899999999999793e+00 7.489969999999999573e+00 7.596440000000000303e+00 1.015297999999999945e+01 2.286350000000000104e+00 7.556250000000000355e+00 1.008657999999999966e+01 7.462240000000000428e+00 2.528300000000000214e+00 2.304409999999999847e+00 4.979499999999999815e+00 2.523109999999999964e+00 2.226329999999999920e+00 1.003514999999999979e+01 2.502990000000000048e+00 7.461459999999999759e+00 5.044889999999999652e+00 2.406270000000000131e+00 7.528010000000000090e+00 1.007435000000000080e+01 7.553580000000000183e+00 2.151349999999999874e+00 5.062179999999999680e+00 7.575190000000000090e+00 2.379440000000000222e+00 2.811999999999999916e-02 7.551429999999999865e+00 7.575319999999999609e+00 5.114440000000000097e+00 7.621620000000000061e+00 7.620599999999999596e+00 4.216999999999999915e-02 1.001136999999999944e+01 5.227909999999999613e+00 4.997499999999999609e+00 2.367000000000000007e-02 5.203219999999999956e+00 1.008535000000000004e+01 3.014999999999999972e-02 3.849000000000000338e-02 4.993680000000000341e+00 9.995480000000000587e+00 7.104000000000000592e-02 1.007135000000000069e+01 4.982210000000000250e+00 5.211990000000000123e+00 5.097929999999999851e+00 5.082740000000000258e+00 5.266219999999999679e+00 4.277999999999999858e-02 5.039170000000000371e+00 8.829999999999999308e-03 4.955549999999999677e+00 4.970489999999999853e+00 7.939999999999999142e-03 6.678000000000000602e-02 4.321690000000000254e+00 4.373289999999999900e+00 3.377730000000000121e+00 4.335189999999999877e+00 4.385019999999999918e+00 8.417669999999999320e+00 4.495750000000000135e+00 9.643079999999999430e+00 3.211259999999999781e+00 4.231729999999999769e+00 9.527200000000000557e+00 8.523949999999999250e+00 9.492060000000000386e+00 4.452589999999999826e+00 3.146939999999999849e+00 9.516130000000000422e+00 4.464369999999999727e+00 8.093429999999999680e+00 9.453889999999999461e+00 9.624090000000000700e+00 3.280320000000000125e+00 9.219070000000000320e+00 9.555139999999999745e+00 8.495710000000000761e+00 3.693599999999999994e+00 1.111769999999999925e+00 1.303010000000000002e+00 3.792920000000000069e+00 1.099750000000000005e+00 6.391339999999999577e+00 3.780749999999999833e+00 6.312730000000000175e+00 1.466050000000000075e+00 3.715310000000000112e+00 6.310789999999999900e+00 6.430570000000000341e+00 8.790739999999999554e+00 1.301339999999999941e+00 1.429540000000000033e+00 8.858060000000000045e+00 9.588200000000000056e-01 6.510080000000000311e+00 8.805030000000000356e+00 6.344520000000000159e+00 1.382789999999999964e+00 8.777150000000000674e+00 6.353320000000000078e+00 6.403800000000000381e+00 4.387459999999999916e+00 1.767570000000000086e+00 4.005639999999999645e+00 4.311560000000000059e+00 1.757700000000000040e+00 9.070570000000000022e+00 4.305710000000000370e+00 6.999620000000000175e+00 4.137660000000000338e+00 4.407029999999999781e+00 7.040650000000000297e+00 9.243560000000000443e+00 9.537929999999999353e+00 1.874889999999999946e+00 4.216529999999999667e+00 9.302339999999999165e+00 1.803960000000000008e+00 9.109669999999999490e+00 9.369130000000000180e+00 6.938320000000000043e+00 4.039159999999999862e+00 9.445930000000000604e+00 6.917080000000000339e+00 9.173149999999999693e+00 3.787889999999999979e+00 3.738980000000000192e+00 9.001400000000000512e-01 3.751640000000000086e+00 3.709839999999999804e+00 6.023579999999999934e+00 3.748009999999999842e+00 8.932019999999999627e+00 9.466200000000000170e-01 3.867389999999999883e+00 8.984289999999999665e+00 5.945319999999999716e+00 1.921920000000000073e+00 4.688899999999999735e-01 4.054689999999999905e+00 1.755090000000000039e+00 3.664000000000000035e-01 8.970679999999999765e+00 1.867809999999999970e+00 5.701780000000000292e+00 4.110929999999999751e+00 1.832379999999999898e+00 5.704519999999999591e+00 9.170859999999999346e+00 6.890049999999999564e+00 6.052100000000000257e-01 4.016759999999999664e+00 6.697119999999999962e+00 3.888499999999999734e-01 9.114869999999999806e+00 6.794509999999999827e+00 5.837760000000000282e+00 4.065640000000000143e+00 6.894529999999999603e+00 5.697680000000000078e+00 9.147980000000000445e+00 1.132519999999999971e+00 3.789639999999999898e+00 9.399999999999999467e-01 1.234110000000000040e+00 3.902579999999999938e+00 5.962220000000000297e+00 1.172739999999999894e+00 9.000870000000000815e+00 9.035699999999999843e-01 1.250890000000000057e+00 9.119550000000000267e+00 6.034349999999999881e+00 6.382740000000000080e+00 3.949079999999999924e+00 9.651199999999999779e-01 6.358010000000000161e+00 3.844450000000000145e+00 6.042869999999999742e+00 6.367589999999999861e+00 9.067080000000000695e+00 9.885000000000000453e-01 6.381499999999999950e+00 9.122730000000000672e+00 6.023920000000000385e+00 1.830740000000000034e+00 3.037859999999999783e+00 3.257010000000000183e+00 1.849120000000000097e+00 3.119990000000000041e+00 8.355790000000000717e+00 1.938099999999999934e+00 8.351210000000000022e+00 3.233420000000000183e+00 1.896500000000000075e+00 8.241799999999999571e+00 8.289300000000000779e+00 6.906290000000000262e+00 3.237249999999999961e+00 3.369930000000000092e+00 6.860899999999999999e+00 3.120389999999999997e+00 8.390689999999999316e+00 6.991329999999999600e+00 8.376569999999999183e+00 3.340520000000000156e+00 6.797869999999999635e+00 8.439149999999999707e+00 8.477230000000000487e+00 1.194439999999999946e+00 1.118589999999999973e+00 1.380910000000000082e+00 1.191060000000000008e+00 1.238839999999999941e+00 6.435170000000000279e+00 1.241020000000000012e+00 6.344859999999999722e+00 1.401650000000000063e+00 1.224169999999999980e+00 6.329690000000000261e+00 6.468569999999999709e+00 6.303790000000000227e+00 1.232129999999999947e+00 1.380959999999999965e+00 6.279149999999999565e+00 1.177929999999999922e+00 6.359070000000000000e+00 6.357999999999999652e+00 6.454729999999999634e+00 1.373669999999999947e+00 6.240630000000000344e+00 6.475609999999999644e+00 6.408909999999999663e+00