1.023478753400000052e+01 0.000000000000000000e+00 0.000000000000000000e+00 -6.816134799999999661e-02 1.023457947099999998e+01 0.000000000000000000e+00 -1.903949999999999957e-04 2.210699999999999959e-04 1.054148358800000018e+01
1.040957361399999925e+01 0.000000000000000000e+00 0.000000000000000000e+00 -6.932538300000000431e-02 1.040936199799999962e+01 0.000000000000000000e+00 -1.936469999999999977e-04 2.248449999999999928e-04 1.072150731500000020e+01
1.025214792200000069e+01 0.000000000000000000e+00 0.000000000000000000e+00 -6.827696399999999555e-02 1.025193950699999945e+01 0.000000000000000000e+00 -1.907180000000000127e-04 2.214449999999999915e-04 1.055936419899999912e+01
1.029899021700000006e+01 0.000000000000000000e+00 0.000000000000000000e+00 -6.858892299999999609e-02 1.029878084899999990e+01 0.000000000000000000e+00 -1.915890000000000117e-04 2.224569999999999879e-04 1.060761017099999926e+01
1.046035863800000065e+01 0.000000000000000000e+00 0.000000000000000000e+00 -6.966360000000000607e-02 1.046014598999999912e+01 0.000000000000000000e+00 -1.945910000000000077e-04 2.259419999999999994e-04 1.077381416599999930e+01
1.047147228200000058e+01 0.000000000000000000e+00 0.000000000000000000e+00 -6.973761400000000332e-02 1.047125940799999988e+01 0.000000000000000000e+00 -1.947979999999999872e-04 2.261820000000000106e-04 1.078526084099999949e+01
1.038419686099999950e+01 0.000000000000000000e+00 0.000000000000000000e+00 -6.915638000000000341e-02 1.038398576099999993e+01 0.000000000000000000e+00 -1.931740000000000041e-04 2.242970000000000109e-04 1.069537012199999992e+01
1.044991244300000055e+01 0.000000000000000000e+00 0.000000000000000000e+00 -6.959403100000000064e-02 1.044970000700000057e+01 0.000000000000000000e+00 -1.943969999999999889e-04 2.257170000000000075e-04 1.076305493899999988e+01
1.034552523600000029e+01 0.000000000000000000e+00 0.000000000000000000e+00 -6.889883600000000496e-02 1.034531492200000002e+01 0.000000000000000000e+00 -1.924550000000000132e-04 2.234620000000000096e-04 1.065553966100000061e+01
1.036175456800000028e+01 0.000000000000000000e+00 0.000000000000000000e+00 -6.900691899999999990e-02 1.036154392499999943e+01 0.000000000000000000e+00 -1.927569999999999978e-04 2.238130000000000067e-04 1.067225532199999982e+01
1.036604695599999992e+01 0.000000000000000000e+00 0.000000000000000000e+00 -6.903550599999999648e-02 1.036583622500000068e+01 0.000000000000000000e+00 -1.928370000000000106e-04 2.239049999999999916e-04 1.067667633499999980e+01
1.043502293399999914e+01 0.000000000000000000e+00 0.000000000000000000e+00 -6.949487000000000025e-02 1.043481080099999936e+01 0.000000000000000000e+00 -1.941199999999999913e-04 2.253950000000000062e-04 1.074771924999999939e+01
1.026590649299999924e+01 0.000000000000000000e+00 0.000000000000000000e+00 -6.836859300000000528e-02 1.026569779799999971e+01 0.000000000000000000e+00 -1.909740000000000049e-04 2.217420000000000057e-04 1.057353505899999924e+01
1.044807680399999938e+01 0.000000000000000000e+00 0.000000000000000000e+00 -6.958180599999999605e-02 1.044786440500000069e+01 0.000000000000000000e+00 -1.943629999999999956e-04 2.256770000000000011e-04 1.076116429300000021e+01
1.038859391799999976e+01 0.000000000000000000e+00 0.000000000000000000e+00 -6.918566299999999447e-02 1.038838272899999993e+01 0.000000000000000000e+00 -1.932559999999999942e-04 2.243919999999999888e-04 1.069989894100000072e+01
1.045545610900000000e+01 0.000000000000000000e+00 0.000000000000000000e+00 -6.963094999999999701e-02 1.045524355999999955e+01 0.000000000000000000e+00 -1.945000000000000114e-04 2.258369999999999995e-04 1.076876472600000056e+01
1.033982895499999977e+01 0.000000000000000000e+00 0.000000000000000000e+00 -6.886090000000000266e-02 1.033961875700000022e+01 0.000000000000000000e+00 -1.923489999999999976e-04 2.233389999999999974e-04 1.064967268500000053e+01
1.036096758999999956e+01 0.000000000000000000e+00 0.000000000000000000e+00 -6.900167799999999685e-02 1.036075696300000004e+01 0.000000000000000000e+00 -1.927420000000000056e-04 2.237960000000000101e-04 1.067144476200000014e+01
1.013493844499999952e+01 0.000000000000000000e+00 0.000000000000000000e+00 -6.749637599999999682e-02 1.013473241199999997e+01 0.000000000000000000e+00 -1.885380000000000031e-04 2.189129999999999960e-04 1.043864241800000059e+01
1.031097770899999944e+01 0.000000000000000000e+00 0.000000000000000000e+00 -6.866875699999999694e-02 1.031076809800000049e+01 0.000000000000000000e+00 -1.918119999999999992e-04 2.227160000000000001e-04 1.061995688100000024e+01
1.019867619200000064e+01 0.000000000000000000e+00 0.000000000000000000e+00 -6.792085500000000220e-02 1.019846886400000052e+01 0.000000000000000000e+00 -1.897230000000000129e-04 2.202899999999999932e-04 1.050429013299999959e+01
1.037335868699999963e+01 0.000000000000000000e+00 0.000000000000000000e+00 -6.908419999999999839e-02 1.037314780700000050e+01 0.000000000000000000e+00 -1.929730000000000106e-04 2.240630000000000128e-04 1.068420717000000053e+01
1.038126566400000073e+01 0.000000000000000000e+00 0.000000000000000000e+00 -6.913685899999999496e-02 1.038105462300000070e+01 0.000000000000000000e+00 -1.931199999999999941e-04 2.242339999999999947e-04 1.069235108800000056e+01
1.049943790000000021e+01 0.000000000000000000e+00 0.000000000000000000e+00 -6.992385900000000487e-02 1.049922445700000040e+01 0.000000000000000000e+00 -1.953179999999999890e-04 2.267869999999999955e-04 1.081406447800000059e+01
1.039221466799999938e+01 0.000000000000000000e+00 0.000000000000000000e+00 -6.920977700000000010e-02 1.039200340500000053e+01 0.000000000000000000e+00 -1.933240000000000078e-04 2.244710000000000130e-04 1.070362819099999996e+01
1.019876193300000011e+01 0.000000000000000000e+00 0.000000000000000000e+00 -6.792142599999999308e-02 1.019855460299999983e+01 0.000000000000000000e+00 -1.897249999999999902e-04 2.202919999999999976e-04 1.050437844300000023e+01
1.029571662699999912e+01 0.000000000000000000e+00 0.000000000000000000e+00 -6.856712199999999424e-02 1.029550732599999918e+01 0.000000000000000000e+00 -1.915289999999999885e-04 2.223860000000000084e-04 1.060423848499999977e+01
1.026444948500000010e+01 0.000000000000000000e+00 0.000000000000000000e+00 -6.835889000000000548e-02 1.026424081899999941e+01 0.000000000000000000e+00 -1.909470000000000134e-04 2.217110000000000055e-04 1.057203439000000067e+01
1.033265429799999957e+01 0.000000000000000000e+00 0.000000000000000000e+00 -6.881311800000000645e-02 1.033244424599999967e+01 0.000000000000000000e+00 -1.922159999999999906e-04 2.231839999999999963e-04 1.064228303199999992e+01
1.042099016399999911e+01 0.000000000000000000e+00 0.000000000000000000e+00 -6.940141499999999408e-02 1.042077831599999982e+01 0.000000000000000000e+00 -1.938590000000000018e-04 2.250920000000000058e-04 1.073326597400000004e+01
1.032655860100000034e+01 0.000000000000000000e+00 0.000000000000000000e+00 -6.877252200000000260e-02 1.032634867300000003e+01 0.000000000000000000e+00 -1.921020000000000117e-04 2.230520000000000050e-04 1.063600467100000024e+01
1.040059473800000056e+01 0.000000000000000000e+00 0.000000000000000000e+00 -6.926558600000000399e-02 1.040038330500000008e+01 0.000000000000000000e+00 -1.934799999999999975e-04 2.246519999999999897e-04 1.071225937800000061e+01
1.029120057999999993e+01 0.000000000000000000e+00 0.000000000000000000e+00 -6.853704600000000424e-02 1.029099137100000050e+01 0.000000000000000000e+00 -1.914440000000000054e-04 2.222889999999999990e-04 1.059958710999999987e+01
1.037877637100000072e+01 0.000000000000000000e+00 0.000000000000000000e+00 -6.912028100000000563e-02 1.037856538099999959e+01 0.000000000000000000e+00 -1.930740000000000017e-04 2.241800000000000119e-04 1.068978719999999960e+01
1.035546984299999984e+01 0.000000000000000000e+00 0.000000000000000000e+00 -6.896506500000000595e-02 1.035525932700000062e+01 0.000000000000000000e+00 -1.926399999999999987e-04 2.236770000000000067e-04 1.066578226799999918e+01
1.034921551100000059e+01 0.000000000000000000e+00 0.000000000000000000e+00 -6.892341200000000334e-02 1.034900512199999945e+01 0.000000000000000000e+00 -1.925239999999999883e-04 2.235419999999999953e-04 1.065934051900000057e+01
1.018174564599999954e+01 0.000000000000000000e+00 0.000000000000000000e+00 -6.780810099999999563e-02 1.018153866099999938e+01 0.000000000000000000e+00 -1.894080000000000134e-04 2.199240000000000038e-04 1.048685224499999968e+01
1.036765644299999956e+01 0.000000000000000000e+00 0.000000000000000000e+00 -6.904622400000000326e-02 1.036744567899999936e+01 0.000000000000000000e+00 -1.928669999999999950e-04 2.239400000000000006e-04 1.067833405200000030e+01
1.029889879000000086e+01 0.000000000000000000e+00 0.000000000000000000e+00 -6.858831399999999745e-02 1.029868942400000087e+01 0.000000000000000000e+00 -1.915879999999999959e-04 2.224550000000000106e-04 1.060751600500000080e+01
1.039948244300000013e+01 0.000000000000000000e+00 0.000000000000000000e+00 -6.925817800000000357e-02 1.039927103299999978e+01 0.000000000000000000e+00 -1.934589999999999921e-04 2.246279999999999913e-04 1.071111375199999927e+01
1.038253934299999948e+01 0.000000000000000000e+00 0.000000000000000000e+00 -6.914534099999999905e-02 1.038232827600000086e+01 0.000000000000000000e+00 -1.931439999999999926e-04 2.242620000000000019e-04 1.069366293400000067e+01
1.027710768700000088e+01 0.000000000000000000e+00 0.000000000000000000e+00 -6.844319000000000097e-02 1.027689876400000024e+01 0.000000000000000000e+00 -1.911820000000000002e-04 2.219839999999999943e-04 1.058507190799999975e+01
1.040545679999999962e+01 0.000000000000000000e+00 0.000000000000000000e+00 -6.929796600000000251e-02 1.040524526799999983e+01 0.000000000000000000e+00 -1.935700000000000051e-04 2.247569999999999896e-04 1.071726713700000033e+01
1.043440745500000055e+01 0.000000000000000000e+00 0.000000000000000000e+00 -6.949077100000000673e-02 1.043419533500000007e+01 0.000000000000000000e+00 -1.941090000000000079e-04 2.253819999999999912e-04 1.074708532800000071e+01
1.036158280599999948e+01 0.000000000000000000e+00 0.000000000000000000e+00 -6.900577500000000530e-02 1.036137216600000066e+01 0.000000000000000000e+00 -1.927540000000000048e-04 2.238089999999999980e-04 1.067207841299999949e+01
1.034489830899999951e+01 0.000000000000000000e+00 0.000000000000000000e+00 -6.889466099999999593e-02 1.034468800800000032e+01 0.000000000000000000e+00 -1.924429999999999869e-04 2.234480000000000060e-04 1.065489394799999978e+01
1.039070915900000003e+01 0.000000000000000000e+00 0.000000000000000000e+00 -6.919975000000000431e-02 1.039049792600000011e+01 0.000000000000000000e+00 -1.932960000000000006e-04 2.244380000000000084e-04 1.070207756699999990e+01
1.029117038100000059e+01 0.000000000000000000e+00 0.000000000000000000e+00 -6.853684499999999902e-02 1.029096117299999946e+01 0.000000000000000000e+00 -1.914440000000000054e-04 2.222880000000000103e-04 1.059955600600000025e+01
1.039011397199999998e+01 0.000000000000000000e+00 0.000000000000000000e+00 -6.919578699999999472e-02 1.038990275099999927e+01 0.000000000000000000e+00 -1.932849999999999900e-04 2.244249999999999934e-04 1.070146454400000025e+01
1.038098999400000011e+01 0.000000000000000000e+00 0.000000000000000000e+00 -6.913502300000000378e-02 1.038077895900000058e+01 0.000000000000000000e+00 -1.931149999999999967e-04 2.242280000000000087e-04 1.069206715700000032e+01
