2.620789999999999953e+00 1.887500000000000011e-01 2.958610000000000184e+00 2.611880000000000202e+00 1.009099999999999997e-01 8.214159999999999684e+00 2.802230000000000221e+00 5.233539999999999637e+00 2.893250000000000099e+00 2.745600000000000041e+00 4.798370000000000246e+00 8.117509999999999337e+00 1.981199999999999906e-01 2.547349999999999781e+00 2.323319999999999830e+00 1.002119000000000071e+01 2.459119999999999973e+00 7.794439999999999813e+00 2.847999999999999837e-02 7.812780000000000058e+00 2.363900000000000112e+00 -5.183999999999999719e-02 7.737560000000000215e+00 7.699480000000000324e+00 7.814770000000000216e+00 2.623920000000000030e+00 4.913840000000000430e+00 7.719990000000000130e+00 2.759430000000000049e+00 1.047503999999999991e+01 7.510250000000000092e+00 7.737219999999999764e+00 5.034659999999999691e+00 7.937549999999999883e+00 7.780400000000000205e+00 1.029213999999999984e+01 5.155470000000000219e+00 1.456300000000000094e-01 1.059883999999999915e+01 4.913020000000000387e+00 1.015522999999999954e+01 5.512310000000000265e+00 5.203339999999999854e+00 5.136580000000000368e+00 1.221999999999999996e-02 5.009859999999999758e+00 4.999729999999999563e+00 5.245350000000000179e+00 5.351790000000000269e+00 2.716530000000000111e+00 2.474169999999999980e+00 4.940439999999999721e+00 2.641919999999999824e+00 7.511529999999999596e+00 5.268430000000000391e+00 7.757990000000000386e+00 2.240439999999999987e+00 5.167819999999999858e+00 7.564949999999999619e+00 7.617600000000000371e+00 7.707589999999999719e+00 1.021832999999999991e+01 2.820180000000000131e+00 7.693229999999999791e+00 8.011000000000000065e-02 8.105629999999999669e+00 7.794590000000000352e+00 5.324300000000000033e+00 2.646980000000000111e+00 7.735979999999999634e+00 5.189840000000000231e+00 8.190509999999999735e+00 3.951000000000000345e-02 1.447100000000000053e-01 1.052604000000000006e+01 -5.539999999999999786e-03 1.013873000000000069e+01 5.611309999999999576e+00 8.326000000000000068e-02 5.090469999999999828e+00 1.933999999999999955e-02 3.125000000000000000e-02 5.117479999999999585e+00 5.284909999999999997e+00 2.387410000000000032e+00 2.615769999999999929e+00 5.370759999999999756e+00 2.933419999999999916e+00 2.724359999999999893e+00 1.061683999999999983e+01 2.608369999999999855e+00 7.692190000000000083e+00 5.190559999999999619e+00 2.764330000000000176e+00 7.602210000000000356e+00 1.021104000000000056e+01 8.727109999999999701e+00 3.556160000000000210e+00 1.442420000000000035e+00 8.850179999999999936e+00 3.655450000000000088e+00 6.530809999999999782e+00 8.980339999999999989e+00 8.832369999999999166e+00 9.184700000000000086e-01 8.881859999999999644e+00 8.629379999999999384e+00 6.452370000000000161e+00 3.836949999999999861e+00 1.322880000000000056e+00 4.227890000000000370e+00 3.910979999999999901e+00 1.364300000000000068e+00 9.459310000000000329e+00 4.269219999999999793e+00 6.301890000000000214e+00 3.840720000000000134e+00 4.032980000000000231e+00 6.346639999999999837e+00 9.151529999999999276e+00 4.075650000000000439e+00 3.588000000000000078e+00 4.079850000000000421e+00 4.230059999999999931e+00 3.739780000000000104e+00 9.073280000000000456e+00 3.758420000000000094e+00 8.830149999999999721e+00 3.658300000000000107e+00 4.305410000000000181e+00 8.936540000000000816e+00 8.769510000000000360e+00 8.963150000000000617e+00 1.097310000000000008e+00 1.481260000000000021e+00 8.825049999999999173e+00 1.039619999999999989e+00 6.776570000000000427e+00 8.935499999999999332e+00 6.139669999999999739e+00 1.297160000000000091e+00 8.764689999999999870e+00 6.048890000000000100e+00 6.700380000000000003e+00 9.390850000000000364e+00 3.455420000000000158e+00 3.998390000000000111e+00 9.096809999999999619e+00 3.667079999999999895e+00 9.233940000000000481e+00 8.955959999999999255e+00 8.740990000000000038e+00 3.532059999999999977e+00 9.367440000000000211e+00 8.921780000000000044e+00 9.084920000000000329e+00 4.035849999999999937e+00 1.261859999999999982e+00 1.603329999999999922e+00 3.744610000000000216e+00 8.600799999999999557e-01 6.859580000000000233e+00 3.710420000000000051e+00 6.332489999999999952e+00 1.231689999999999952e+00 3.678080000000000016e+00 5.952709999999999724e+00 6.553270000000000373e+00 1.506229999999999958e+00 1.931179999999999897e+00 3.690620000000000012e+00 1.088529999999999998e+00 1.224390000000000089e+00 9.053140000000000853e+00 1.606300000000000061e+00 6.875530000000000364e+00 3.604290000000000216e+00 1.615339999999999998e+00 6.740700000000000358e+00 8.568400000000000460e+00 6.220559999999999867e+00 1.720820000000000016e+00 7.161600000000000188e-01 6.074849999999999639e+00 1.951049999999999951e+00 5.863620000000000054e+00 6.297439999999999927e+00 6.784169999999999590e+00 6.033699999999999619e-01 6.149569999999999759e+00 6.584080000000000155e+00 5.798589999999999911e+00 6.884669999999999845e+00 1.884840000000000071e+00 3.279879999999999907e+00 6.343029999999999724e+00 1.553029999999999911e+00 8.402630000000000265e+00 6.834450000000000358e+00 6.893889999999999851e+00 3.229290000000000216e+00 6.997029999999999639e+00 7.068080000000000140e+00 8.614489999999999981e+00 6.058410000000000295e+00 4.555559999999999832e+00 1.760639999999999983e+00 5.990269999999999762e+00 4.523819999999999730e+00 7.325999999999999623e+00 6.089019999999999655e+00 9.371990000000000265e+00 1.681769999999999987e+00 6.173210000000000086e+00 9.247049999999999770e+00 6.858690000000000175e+00 9.004550000000000054e+00 1.022880000000000011e+00 4.050989999999999647e+00 8.728839999999999932e+00 1.174760000000000026e+00 9.344379999999999242e+00 9.129770000000000607e+00 6.274890000000000079e+00 4.000399999999999956e+00 9.076420000000000599e+00 6.436530000000000307e+00 9.386879999999999669e+00 6.776069999999999816e+00 4.386669999999999625e+00 4.346700000000000230e+00 6.654539999999999900e+00 4.298890000000000100e+00 9.922109999999999985e+00 6.705330000000000013e+00 9.480689999999999173e+00 4.454340000000000188e+00 6.737280000000000157e+00 9.405110000000000525e+00 9.818329999999999558e+00 1.301020000000000065e+00 1.741940000000000044e+00 7.390799999999999592e-01 1.107860000000000067e+00 1.576899999999999968e+00 6.412490000000000023e+00 1.057309999999999972e+00 6.834819999999999673e+00 6.758800000000000363e-01 9.615399999999999503e-01 7.022450000000000081e+00 5.831109999999999793e+00 1.720299999999999940e+00 4.360109999999999708e+00 4.605949999999999989e+00 1.691940000000000000e+00 4.104350000000000165e+00 9.885709999999999553e+00 1.392439999999999900e+00 9.508829999999999671e+00 4.493909999999999627e+00 1.656730000000000036e+00 9.086149999999999949e+00 9.855949999999999989e+00 8.656099999999999905e-01 4.370720000000000383e+00 1.895219999999999905e+00 1.227400000000000047e+00 4.010959999999999859e+00 7.216249999999999609e+00 1.224069999999999991e+00 9.585810000000000386e+00 1.839939999999999909e+00 1.128349999999999964e+00 9.280089999999999506e+00 7.234530000000000349e+00
2.877429999999999932e+00 1.009229000000000021e+01 2.786459999999999937e+00 2.804050000000000153e+00 1.018279000000000067e+01 8.043110000000000426e+00 2.923680000000000057e+00 5.096280000000000143e+00 2.727310000000000123e+00 2.733890000000000153e+00 5.170320000000000249e+00 8.035560000000000258e+00 1.290600000000000080e-01 2.673059999999999992e+00 2.372259999999999813e+00 2.134000000000000133e-02 2.688689999999999802e+00 7.621470000000000411e+00 1.015338999999999992e+01 7.773139999999999716e+00 2.378509999999999902e+00 1.016028999999999982e+01 7.717850000000000321e+00 7.701450000000000351e+00 7.864099999999999646e+00 2.771380000000000177e+00 5.104300000000000281e+00 7.882780000000000342e+00 2.647019999999999929e+00 1.033389999999999986e+01 7.794819999999999638e+00 7.775100000000000122e+00 5.146709999999999674e+00 7.805880000000000152e+00 7.838359999999999772e+00 1.026299999999999990e+01 5.101619999999999600e+00 1.612800000000000067e-01 1.054000000000000076e-02 5.082239999999999647e+00 1.004029000000000060e+01 5.401379999999999626e+00 5.116389999999999993e+00 5.098489999999999966e+00 1.226499999999999951e-01 5.175180000000000113e+00 4.874939999999999607e+00 5.386389999999999567e+00 5.098969999999999558e+00 2.411840000000000206e+00 2.402420000000000222e+00 4.996850000000000236e+00 2.533319999999999794e+00 7.738599999999999923e+00 5.374240000000000350e+00 7.784379999999999633e+00 2.343630000000000102e+00 5.136449999999999960e+00 7.795020000000000060e+00 7.660630000000000273e+00 7.650529999999999831e+00 1.828299999999999925e-01 2.699739999999999807e+00 7.803250000000000242e+00 2.899399999999999755e-01 7.922990000000000421e+00 7.759330000000000283e+00 5.212030000000000385e+00 2.643520000000000092e+00 7.652549999999999741e+00 5.229099999999999859e+00 8.041150000000000020e+00 1.052400000000000002e-01 3.039000000000000035e-02 8.916999999999999926e-02 1.002209000000000039e+01 1.367899999999999949e-01 5.341050000000000075e+00 2.199500000000000066e-01 5.179610000000000269e+00 1.317399999999999960e-01 1.433699999999999974e-01 5.295810000000000350e+00 5.332169999999999632e+00 2.720600000000000129e+00 2.522289999999999921e+00 4.904080000000000439e+00 2.717270000000000074e+00 2.585809999999999942e+00 1.031750000000000078e+01 2.834070000000000089e+00 7.588530000000000442e+00 4.899420000000000108e+00 2.817849999999999966e+00 7.683430000000000426e+00 1.030990000000000073e+01 8.836000000000000298e+00 3.894219999999999793e+00 1.156730000000000036e+00 8.959070000000000533e+00 3.902480000000000171e+00 6.409099999999999575e+00 8.858079999999999288e+00 9.043540000000000134e+00 1.221230000000000038e+00 8.715270000000000294e+00 9.095610000000000639e+00 6.483590000000000408e+00 4.258740000000000414e+00 1.162469999999999892e+00 3.866010000000000169e+00 3.961469999999999825e+00 1.214699999999999891e+00 9.190580000000000638e+00 4.299660000000000259e+00 6.180200000000000138e+00 4.157379999999999853e+00 4.199410000000000309e+00 6.450879999999999725e+00 9.196070000000000633e+00 4.262089999999999712e+00 3.647229999999999972e+00 3.892510000000000137e+00 4.126559999999999562e+00 3.732340000000000213e+00 9.240890000000000271e+00 4.080610000000000070e+00 8.693550000000000111e+00 3.639969999999999928e+00 4.098090000000000011e+00 8.933899999999999508e+00 9.091580000000000439e+00 8.676330000000000098e+00 1.281830000000000025e+00 1.314000000000000057e+00 8.687689999999999912e+00 1.332759999999999945e+00 6.505449999999999733e+00 8.789680000000000604e+00 6.437850000000000072e+00 1.302429999999999977e+00 8.702959999999999141e+00 6.366530000000000022e+00 6.644300000000000317e+00 9.335689999999999600e+00 3.802389999999999937e+00 3.846260000000000012e+00 9.156869999999999621e+00 3.989050000000000207e+00 9.065879999999999939e+00 9.074980000000000047e+00 8.933379999999999654e+00 3.878810000000000091e+00 9.224230000000000373e+00 9.095579999999999998e+00 9.208420000000000272e+00 3.514460000000000139e+00 1.117599999999999927e+00 1.142609999999999904e+00 3.826480000000000103e+00 1.218590000000000062e+00 6.460180000000000256e+00 3.796460000000000168e+00 6.349789999999999601e+00 1.423570000000000002e+00 4.036769999999999747e+00 6.371310000000000251e+00 6.589080000000000048e+00 1.780640000000000001e+00 1.898590000000000000e+00 3.246020000000000127e+00 1.717379999999999907e+00 1.954190000000000094e+00 8.606210000000000804e+00 1.900269999999999904e+00 6.934129999999999683e+00 3.295690000000000008e+00 1.791549999999999976e+00 7.065140000000000420e+00 8.491009999999999280e+00 6.895220000000000127e+00 2.070559999999999956e+00 3.334979999999999833e+00 6.605839999999999712e+00 1.952450000000000019e+00 8.700839999999999463e+00 6.860190000000000232e+00 6.890719999999999956e+00 3.473059999999999814e+00 6.886619999999999742e+00 7.081570000000000142e+00 8.413470000000000226e+00 6.001280000000000392e+00 4.406719999999999970e+00 1.972369999999999957e+00 6.193889999999999674e+00 4.337310000000000443e+00 7.130860000000000198e+00 6.233679999999999666e+00 6.756750000000000256e+00 6.111499999999999710e-01 6.010849999999999582e+00 9.545230000000000103e+00 7.174500000000000099e+00 9.280329999999999302e+00 1.399690000000000101e+00 3.931589999999999918e+00 9.206220000000000070e+00 1.439359999999999973e+00 9.211220000000000852e+00 9.163779999999999148e+00 6.374629999999999797e+00 3.949180000000000135e+00 9.055690000000000239e+00 6.582880000000000287e+00 9.189009999999999678e+00 6.933080000000000354e+00 4.444239999999999746e+00 4.238879999999999981e+00 6.721930000000000405e+00 4.412700000000000067e+00 9.942209999999999326e+00 6.746839999999999726e+00 9.542229999999999990e+00 4.375519999999999854e+00 6.646759999999999557e+00 9.513099999999999667e+00 9.886079999999999757e+00 9.891199999999999992e-01 1.900740000000000096e+00 5.549399999999999888e-01 1.018469999999999986e+00 1.993770000000000042e+00 5.904620000000000424e+00 1.020420000000000105e+00 6.919419999999999682e+00 5.911399999999999988e-01 1.081509999999999971e+00 6.985459999999999781e+00 6.007500000000000284e+00 1.927419999999999911e+00 4.449510000000000076e+00 4.532829999999999693e+00 1.725379999999999914e+00 4.348220000000000418e+00 9.725419999999999732e+00 1.783689999999999998e+00 9.566919999999999646e+00 4.469579999999999664e+00 1.930770000000000097e+00 9.597279999999999589e+00 9.893929999999999225e+00 1.014739999999999975e+00 4.470710000000000406e+00 1.825960000000000027e+00 1.084049999999999958e+00 4.594409999999999883e+00 7.159839999999999982e+00 1.073209999999999997e+00 9.456110000000000682e+00 1.852270000000000083e+00 1.063979999999999926e+00 9.632509999999999906e+00 7.258409999999999584e+00 3.648820000000000174e+00 3.697159999999999780e+00 1.205840000000000023e+00 3.685179999999999900e+00 3.750939999999999941e+00 6.512489999999999668e+00 3.936840000000000117e+00 8.831950000000000855e+00 1.201850000000000085e+00 3.569570000000000132e+00 8.859289999999999665e+00 6.525039999999999729e+00
2.574679999999999858e+00 1.012297000000000047e+01 2.811620000000000008e+00 2.627679999999999794e+00 6.643000000000000294e-02 8.093769999999999243e+00 2.645640000000000214e+00 5.048580000000000290e+00 2.835300000000000153e+00 2.496579999999999799e+00 5.202480000000000437e+00 8.239789999999999281e+00 1.013560999999999979e+01 2.624639999999999862e+00 2.264780000000000015e+00 -1.795000000000000068e-02 2.617710000000000203e+00 7.793110000000000426e+00 5.657999999999999835e-02 7.493710000000000093e+00 2.456360000000000099e+00 6.383999999999999397e-02 7.799879999999999924e+00 7.669699999999999740e+00 7.801520000000000010e+00 2.492989999999999817e+00 5.013650000000000162e+00 7.538999999999999702e+00 2.739970000000000017e+00 1.030347000000000079e+01 7.708400000000000141e+00 7.648460000000000036e+00 4.977170000000000094e+00 7.873680000000000234e+00 7.672889999999999766e+00 1.044677000000000078e+01 5.133670000000000400e+00 1.003046999999999933e+01 2.309199999999999864e-01 5.186320000000000263e+00 7.631999999999999895e-02 5.347360000000000113e+00 5.028340000000000032e+00 5.149820000000000064e+00 1.414600000000000024e-01 5.152669999999999639e+00 4.987470000000000070e+00 5.418989999999999974e+00 5.226560000000000095e+00 2.578450000000000131e+00 2.397759999999999891e+00 4.965790000000000148e+00 2.604560000000000208e+00 7.810159999999999769e+00 5.027110000000000412e+00 7.626640000000000086e+00 2.429170000000000051e+00 5.056600000000000428e+00 7.724219999999999864e+00 7.569280000000000008e+00 7.915250000000000341e+00 1.020287000000000077e+01 2.570840000000000014e+00 7.615190000000000126e+00 5.367000000000000243e-02 8.110060000000000713e+00 7.806269999999999598e+00 5.218820000000000014e+00 2.780279999999999863e+00 7.778889999999999638e+00 5.377650000000000041e+00 8.206070000000000420e+00 1.964299999999999935e-01 2.660299999999999887e-01 9.371999999999999775e-02 1.355000000000000093e-01 1.270100000000000118e-01 5.278120000000000367e+00 1.843899999999999983e-01 5.049360000000000070e+00 9.599000000000000588e-02 3.348999999999999894e-02 5.317490000000000272e+00 5.463840000000000252e+00 2.774140000000000050e+00 2.561319999999999819e+00 5.056899999999999729e+00 2.832359999999999989e+00 2.478509999999999991e+00 1.047186999999999912e+01 2.778469999999999995e+00 7.704749999999999766e+00 5.187229999999999563e+00 2.676320000000000032e+00 7.801169999999999938e+00 1.041187000000000040e+01 9.062239999999999185e+00 3.718820000000000014e+00 9.241099999999999870e-01 8.809530000000000527e+00 4.002919999999999590e+00 6.337259999999999671e+00 9.042759999999999465e+00 8.872220000000000439e+00 8.742100000000000426e-01 8.909230000000000871e+00 8.985670000000000712e+00 6.052069999999999617e+00 4.098349999999999937e+00 1.179689999999999905e+00 3.944949999999999957e+00 4.061359999999999637e+00 1.202460000000000084e+00 9.467950000000000088e+00 4.064770000000000216e+00 6.330639999999999823e+00 4.073809999999999931e+00 4.001290000000000013e+00 6.316499999999999559e+00 9.470179999999999154e+00 4.269389999999999574e+00 3.699100000000000055e+00 3.996780000000000221e+00 3.893110000000000070e+00 3.849790000000000045e+00 9.321649999999999991e+00 4.105579999999999785e+00 8.766299999999999315e+00 3.740320000000000089e+00 3.901299999999999990e+00 8.802550000000000097e+00 9.068709999999999383e+00 8.994379999999999598e+00 1.203959999999999919e+00 1.472520000000000051e+00 8.855800000000000338e+00 1.334699999999999998e+00 6.827429999999999666e+00 8.722960000000000491e+00 6.278400000000000425e+00 1.274680000000000035e+00 9.002179999999999183e+00 6.429590000000000138e+00 6.797229999999999883e+00 9.110160000000000480e+00 3.739149999999999974e+00 3.604800000000000004e+00 9.017540000000000333e+00 3.761800000000000033e+00 9.158540000000000347e+00 9.057880000000000820e+00 8.799659999999999371e+00 3.503929999999999989e+00 9.091599999999999682e+00 8.995309999999999917e+00 8.837460000000000093e+00 3.863379999999999814e+00 1.234790000000000054e+00 1.356100000000000083e+00 3.983960000000000168e+00 1.383780000000000010e+00 6.542749999999999844e+00 3.638539999999999885e+00 6.157689999999999664e+00 1.398879999999999901e+00 3.666809999999999903e+00 6.332950000000000301e+00 6.682570000000000121e+00 1.527069999999999927e+00 1.637399999999999967e+00 3.404150000000000009e+00 1.738369999999999971e+00 1.793830000000000036e+00 8.664419999999999789e+00 1.650120000000000031e+00 6.728159999999999918e+00 3.499719999999999942e+00 1.600759999999999961e+00 7.058550000000000324e+00 8.720190000000000552e+00 6.085589999999999833e+00 1.564519999999999911e+00 6.478199999999999514e-01 5.984860000000000291e+00 1.992869999999999919e+00 5.875989999999999824e+00 6.003110000000000390e+00 6.891029999999999767e+00 6.619800000000000129e-01 6.273710000000000342e+00 6.835790000000000255e+00 5.968919999999999781e+00 7.019660000000000011e+00 1.911810000000000009e+00 3.122720000000000162e+00 6.517649999999999721e+00 1.735079999999999956e+00 8.694729999999999848e+00 6.753599999999999604e+00 6.872600000000000264e+00 3.316940000000000222e+00 6.884149999999999991e+00 7.023369999999999891e+00 8.741949999999999221e+00 6.067219999999999835e+00 4.374399999999999622e+00 1.851590000000000069e+00 5.803950000000000387e+00 4.373380000000000045e+00 7.204810000000000159e+00 6.282829999999999693e+00 9.306390000000000384e+00 1.776969999999999938e+00 6.078159999999999563e+00 9.292920000000000513e+00 6.885629999999999917e+00 9.150009999999999977e+00 1.241940000000000044e+00 4.165680000000000049e+00 9.050300000000000011e+00 1.321769999999999889e+00 9.584839999999999804e+00 9.317550000000000665e+00 6.226230000000000153e+00 3.945289999999999964e+00 9.311740000000000350e+00 6.480410000000000004e+00 9.323349999999999582e+00 6.918239999999999945e+00 4.519239999999999924e+00 4.578759999999999941e+00 6.640520000000000422e+00 4.491060000000000052e+00 9.692339999999999733e+00 6.853379999999999583e+00 9.710229999999999251e+00 4.402630000000000265e+00 6.816589999999999705e+00 9.486689999999999401e+00 9.869619999999999393e+00 1.092989999999999906e+00 1.878710000000000102e+00 7.651200000000000223e-01 1.151459999999999928e+00 1.849990000000000023e+00 6.067590000000000039e+00 1.227170000000000094e+00 6.609399999999999942e+00 7.488299999999999956e-01 1.013589999999999991e+00 7.127510000000000012e+00 5.924290000000000056e+00 1.697610000000000063e+00 4.427889999999999660e+00 4.630840000000000067e+00 1.569050000000000056e+00 4.138700000000000045e+00 9.711679999999999424e+00 1.716329999999999911e+00 9.408400000000000318e+00 4.527079999999999771e+00 1.550019999999999953e+00 9.506550000000000722e+00 9.843529999999999447e+00 9.414000000000000146e-01 4.472680000000000433e+00 2.076290000000000191e+00 8.859200000000000408e-01 4.617750000000000021e+00 7.165890000000000093e+00 9.361699999999999466e-01 9.445830000000000837e+00 1.824589999999999934e+00 8.801700000000000079e-01 9.807800000000000296e+00 7.203660000000000174e+00
2.687180000000000124e+00 1.262999999999999956e-01 2.850849999999999884e+00 2.615270000000000206e+00 6.419999999999999318e-02 7.989029999999999632e+00 2.792060000000000208e+00 5.128610000000000113e+00 3.007859999999999978e+00 2.583509999999999973e+00 5.079559999999999853e+00 8.336430000000000007e+00 2.389400000000000135e-01 2.651250000000000107e+00 2.314459999999999962e+00 1.144099999999999978e-01 2.611390000000000100e+00 7.806890000000000107e+00 -2.386999999999999886e-02 7.692739999999999689e+00 2.367529999999999912e+00 1.244399999999999951e-01 8.003740000000000521e+00 7.788470000000000226e+00 7.883750000000000036e+00 2.724990000000000023e+00 5.030529999999999724e+00 7.842509999999999870e+00 2.374270000000000103e+00 1.035421000000000014e+01 7.667659999999999698e+00 7.771989999999999732e+00 5.075339999999999741e+00 7.647050000000000125e+00 7.721669999999999590e+00 1.025850999999999935e+01 5.183500000000000441e+00 1.020529999999999937e+01 1.051561000000000057e+01 5.092050000000000409e+00 1.021289999999999942e+01 5.563119999999999621e+00 5.207580000000000098e+00 5.000860000000000305e+00 1.062210999999999927e+01 5.003350000000000186e+00 5.235039999999999694e+00 5.589970000000000105e+00 5.174850000000000172e+00 2.648140000000000160e+00 2.320349999999999913e+00 5.003800000000000026e+00 2.580049999999999955e+00 7.561849999999999739e+00 4.982330000000000148e+00 7.807459999999999845e+00 2.173270000000000035e+00 4.991909999999999847e+00 7.537429999999999630e+00 7.818970000000000198e+00 7.740700000000000358e+00 5.057999999999999996e-02 2.704600000000000115e+00 7.745190000000000019e+00 1.063500000000000001e-01 8.001070000000000348e+00 7.712519999999999598e+00 5.194720000000000226e+00 2.920819999999999972e+00 7.964319999999999844e+00 4.997889999999999944e+00 8.149050000000000793e+00 5.031000000000000055e-02 1.023835000000000051e+01 1.442000000000000053e-02 9.460999999999999965e-02 8.744999999999999996e-02 5.295860000000000234e+00 1.019210999999999956e+01 4.980870000000000353e+00 3.582199999999999829e-01 -1.469999999999999953e-02 5.340119999999999756e+00 5.482540000000000191e+00 2.694869999999999877e+00 2.622819999999999929e+00 5.146980000000000111e+00 2.848320000000000185e+00 2.636029999999999873e+00 1.036070999999999920e+01 2.599689999999999834e+00 7.853220000000000312e+00 5.060609999999999609e+00 2.641459999999999919e+00 7.887529999999999930e+00 1.063640999999999970e+01 9.003610000000000113e+00 3.607359999999999900e+00 1.176090000000000080e+00 8.848039999999999239e+00 3.384240000000000137e+00 6.785230000000000317e+00 8.993019999999999570e+00 8.513130000000000308e+00 8.090899999999999759e-01 8.933550000000000324e+00 8.738839999999999719e+00 6.368820000000000370e+00 3.883049999999999891e+00 1.148640000000000105e+00 4.283599999999999852e+00 3.904170000000000140e+00 1.454509999999999970e+00 9.233909999999999840e+00 3.786350000000000104e+00 6.399709999999999788e+00 4.214590000000000281e+00 3.970670000000000144e+00 6.440500000000000114e+00 9.443939999999999557e+00 4.083079999999999821e+00 3.820100000000000051e+00 3.769670000000000076e+00 4.053700000000000081e+00 3.891859999999999875e+00 8.852040000000000575e+00 4.189549999999999663e+00 9.006990000000000052e+00 3.982569999999999943e+00 3.984480000000000022e+00 9.058389999999999276e+00 9.191580000000000084e+00 9.004739999999999966e+00 9.835899999999999643e-01 1.247020000000000017e+00 9.011210000000000164e+00 8.699500000000000011e-01 6.483839999999999826e+00 9.264469999999999317e+00 5.942149999999999821e+00 2.011400000000000077e+00 9.233349999999999724e+00 6.015559999999999796e+00 7.113229999999999720e+00 9.154329999999999856e+00 3.807449999999999779e+00 3.863399999999999945e+00 9.599610000000000198e+00 3.743250000000000188e+00 9.125709999999999766e+00 9.104950000000000543e+00 8.812329999999999330e+00 3.612130000000000063e+00 9.049569999999999226e+00 8.929209999999999425e+00 9.008879999999999555e+00 4.031930000000000014e+00 1.075139999999999985e+00 1.162179999999999991e+00 3.730949999999999989e+00 1.170090000000000074e+00 6.630180000000000184e+00 3.596210000000000129e+00 6.338669999999999582e+00 1.457209999999999894e+00 3.616010000000000169e+00 6.446410000000000196e+00 6.982009999999999827e+00 1.989579999999999904e+00 1.914749999999999952e+00 3.154389999999999805e+00 1.628830000000000000e+00 1.755419999999999980e+00 8.839700000000000557e+00 1.420360000000000067e+00 6.925460000000000171e+00 3.610110000000000152e+00 1.474169999999999980e+00 6.939049999999999940e+00 8.713110000000000355e+00 6.446320000000000050e+00 1.692420000000000035e+00 8.591499999999999693e-01 6.380720000000000169e+00 1.647880000000000011e+00 6.229180000000000383e+00 6.124179999999999957e+00 6.913929999999999687e+00 5.956500000000000128e-01 6.077340000000000408e+00 6.851090000000000124e+00 5.948739999999999917e+00 6.670010000000000439e+00 1.776259999999999950e+00 3.383929999999999882e+00 6.566340000000000288e+00 1.477640000000000065e+00 8.982810000000000628e+00 6.737400000000000055e+00 6.886569999999999858e+00 3.280479999999999841e+00 6.544660000000000366e+00 6.620730000000000004e+00 8.709870000000000445e+00 6.209299999999999820e+00 4.279790000000000205e+00 1.850629999999999997e+00 6.377580000000000027e+00 4.423119999999999941e+00 6.883060000000000400e+00 6.285730000000000040e+00 9.517739999999999867e+00 1.616600000000000037e+00 6.036769999999999747e+00 9.274399999999999977e+00 7.139350000000000307e+00 9.268440000000000012e+00 1.126829999999999998e+00 3.799030000000000129e+00 9.113120000000000331e+00 1.232439999999999980e+00 9.169750000000000512e+00 8.771699999999999164e+00 6.357380000000000031e+00 4.434859999999999580e+00 8.921269999999999811e+00 6.122659999999999769e+00 9.743090000000000472e+00 6.957379999999999676e+00 4.490809999999999746e+00 4.816430000000000433e+00 6.986640000000000406e+00 4.270069999999999588e+00 9.871280000000000499e+00 6.811049999999999827e+00 9.633490000000000109e+00 4.448669999999999902e+00 6.653150000000000119e+00 9.306039999999999424e+00 9.522069999999999368e+00 1.109410000000000007e+00 1.783309999999999951e+00 6.406300000000000328e-01 1.008099999999999996e+00 1.813909999999999911e+00 5.858489999999999753e+00 1.105420000000000069e+00 6.989840000000000053e+00 8.128400000000000070e-01 9.094200000000000061e-01 7.111559999999999881e+00 6.023340000000000138e+00 1.796440000000000037e+00 4.469560000000000421e+00 4.708750000000000213e+00 1.954990000000000006e+00 4.382380000000000386e+00 1.004554000000000080e+01 1.426190000000000069e+00 9.482169999999999987e+00 4.345329999999999693e+00 1.577620000000000022e+00 9.469099999999999184e+00 9.615099999999999980e+00 9.524099999999999788e-01 4.430049999999999599e+00 2.256520000000000081e+00 1.046880000000000033e+00 4.295090000000000074e+00 7.140049999999999564e+00 1.329139999999999988e+00 9.560190000000000410e+00 1.600370000000000070e+00 1.030950000000000033e+00 9.757350000000000634e+00 7.135150000000000325e+00