7.369486100960875419e+00 -3.446252670221175762e+00 3.615625694615597130e+00 -3.446252670221175762e+00 1.278345152996568679e+01 -5.652764075095794150e-01 3.615625694615597130e+00 -5.652764075095794150e-01 1.602162130011489438e+01
-1.111288386246593873e+01 1.100925350546922310e+00 1.135393930371642934e+00 1.100925350546922310e+00 -2.292936509785473975e-01 -3.707911189821492925e+00 1.135393930371642934e+00 -3.707911189821492925e+00 -9.688441213524669138e+00
-1.821029715020135598e+01 5.001593931502324786e+00 2.090115265420027679e+00 5.001593931502324786e+00 -2.029509108261404293e+01 1.343034891143872089e+00 2.090115265420027679e+00 1.343034891143872089e+00 -3.492707350300944924e+00
1.349720861169093344e-01 -8.012250635866024595e+00 -4.114000125627622850e+00 -8.012250635866024595e+00 3.924994421956937707e+00 -3.387485180049295774e+00 -4.114000125627622850e+00 -3.387485180049295774e+00 1.145607856242438594e+01
4.472134293270724470e+01 -6.325735917884108828e-01 -1.053745715873256605e+00 -6.325735917884108828e-01 5.015348820218724057e+01 -4.206452982050129741e+00 -1.053745715873256605e+00 -4.206452982050129741e+00 6.056038649892916226e+01
6.090688249869654847e+00 3.460500691193167278e+00 3.324694088689179594e+00 3.460500691193167278e+00 1.441703997350682087e+01 -9.373388575210643836e+00 3.324694088689179594e+00 -9.373388575210643836e+00 1.393690880490266082e+01
-3.950590032603003898e+00 -1.301998848612667281e+01 -7.167122361663558650e+00 -1.301998848612667281e+01 -3.783971981156474484e+00 1.274136799256631036e+00 -7.167122361663558650e+00 1.274136799256631036e+00 -3.399286075210257962e+01
-2.980991126129327640e+01 -2.605398771600496044e+00 2.519635612834576044e+00 -2.605398771600496044e+00 -1.688822153494009015e+01 -4.864588069681737181e+00 2.519635612834576044e+00 -4.864588069681737181e+00 1.792654284225443817e+01
-5.426156596867040882e+00 -3.714684154722267539e+00 -2.683776278833188700e-01 -3.714684154722267539e+00 2.121456730726444528e-01 2.706412741297652413e-01 -2.683776278833188700e-01 2.706412741297652413e-01 -3.411226787403002003e+00
-1.708828196922759091e+01 9.170136849727574813e+00 -1.001313537935724751e+00 9.170136849727574813e+00 -1.003092162710247592e+01 -5.487951962802000594e+00 -1.001313537935724751e+00 -5.487951962802000594e+00 -1.021967165503362907e+01
-3.575558085480703419e+00 -1.669358164242915521e+01 1.504703840998968012e+01 -1.669358164242915521e+01 -2.005668932317086828e+01 1.654983937439096664e+01 1.504703840998968012e+01 1.654983937439096664e+01 -3.609867900886972336e+01
-3.242841228042787804e+01 4.929182577692952094e+00 7.434257326297504243e+00 4.929182577692952094e+00 -1.355470959094462380e+01 -2.893302696509877148e+00 7.434257326297504243e+00 -2.893302696509877148e+00 -1.044245205395760401e+01
-2.965244870996567084e+00 2.944177411877586081e+00 -1.136286694601317260e+00 2.944177411877586081e+00 -1.892030423152953333e-01 -6.807200136006227531e+00 -1.136286694601317260e+00 -6.807200136006227531e+00 -2.002367473350217253e-01
1.045388122575396395e+01 -3.699851882146992121e+00 2.405262583907877172e+00 -3.699851882146992121e+00 2.315602356127038064e+01 -1.661671465592856389e+00 2.405262583907877172e+00 -1.661671465592856389e+00 1.540100102365564183e+01
3.813371424774851448e+01 -1.835488522645111198e+00 2.606874270026938500e+00 -1.835488522645111198e+00 2.197304384423738455e+01 7.253554098638905323e+00 2.606874270026938500e+00 7.253554098638905323e+00 4.646755519427828496e+00
3.106170446268886920e+01 5.241639592054602836e+00 6.810076458062145122e+00 5.241639592054602836e+00 2.637053269653414844e+01 -1.132462695698949240e+01 6.810076458062145122e+00 -1.132462695698949240e+01 3.008084146424024041e+01
2.337876672201035788e+01 1.955399757574084418e+01 -1.814734233178372014e+00 1.955399757574084418e+01 3.075826918843059588e+01 -4.628589552853926925e+00 -1.814734233178372014e+00 -4.628589552853926925e+00 -2.362189072665601586e+01
2.028321017331438725e+01 1.619194771386340648e+01 1.650939914265646635e+01 1.619194771386340648e+01 1.463232232517171560e+01 -5.028859597632241218e+00 1.650939914265646635e+01 -5.028859597632241218e+00 6.780955426604515779e-01
-6.447076102141032550e+00 3.745596556237416941e+00 2.870620757620356844e+00 3.745596556237416941e+00 6.618369600471221581e+00 -4.104763628323786051e+00 2.870620757620356844e+00 -4.104763628323786051e+00 -2.337505474062290478e+00
-2.293069491344506616e+01 -3.293148342024770692e+00 6.970564560812941401e+00 -3.293148342024770692e+00 -1.192793214026002602e+01 -5.116471871050577214e+00 6.970564560812941401e+00 -5.116471871050577214e+00 -2.113646638420490775e-01
-1.693676085257055064e+01 4.768209522554339164e-01 -2.752233394721814719e+00 4.768209522554339164e-01 -9.061898854394103253e+00 1.069345098459436372e+00 -2.752233394721814719e+00 1.069345098459436372e+00 -1.012752472770784529e+01
-2.598646575053201513e+00 1.702492194253450331e+00 3.209638470975479407e+01 1.702492194253450331e+00 -1.540504800505171445e+01 -2.002174800708239388e+00 3.209638470975479407e+01 -2.002174800708239388e+00 -3.091693446481010810e+01
8.989813966561730041e+00 -4.179207757152426872e+00 1.415663045541739606e+01 -4.179207757152426872e+00 8.756092312948689838e+00 -1.234279922877947833e+01 1.415663045541739606e+01 -1.234279922877947833e+01 -4.579750953434913185e+01
-3.097266044990902412e+00 -4.666253327778061788e+00 -5.545967317669119545e+00 -4.666253327778061788e+00 -5.639852960573698226e+00 -2.823018094262237376e+00 -5.545967317669119545e+00 -2.823018094262237376e+00 -1.261252522093798767e+01
-3.626172382258451510e+00 3.776373350270718632e+00 1.660320486677783869e+00 3.776373350270718632e+00 3.674006913263663243e+00 -2.736022987398259776e+00 1.660320486677783869e+00 -2.736022987398259776e+00 -1.617906031098706787e+00
2.101039315601119739e+01 1.050928676921083138e+01 7.603784718536206633e+00 1.050928676921083138e+01 4.030217636622772659e+01 -1.258163862025244484e+01 7.603784718536206633e+00 -1.258163862025244484e+01 -1.394020650350634760e+01
2.921953151108805358e+01 -8.852096543158594955e+00 -6.993433571483331335e+00 -8.852096543158594955e+00 3.459856806319390898e+01 -5.328754976308522906e+00 -6.993433571483331335e+00 -5.328754976308522906e+00 2.744913096173844380e+01
-8.291154886979215100e-01 -1.320616397523146412e+00 1.742766806130074997e+01 -1.320616397523146412e+00 -2.960924261987582540e+01 -9.877439102577774577e+00 1.742766806130074997e+01 -9.877439102577774577e+00 -7.641033458884494678e+01
2.285898004089098734e+01 3.196587196018799926e+00 -1.689333188709253974e+01 3.196587196018799926e+00 -8.690300414909694737e+00 -3.152509854921667909e+00 -1.689333188709253974e+01 -3.152509854921667909e+00 -2.340542767862252660e+01
3.093794711203462811e+01 7.473454807566721758e-01 3.452249346931923757e+00 7.473454807566721758e-01 4.551912815194381068e+01 -2.884676881365486611e+00 3.452249346931923757e+00 -2.884676881365486611e+00 3.891517808182338456e+01
6.086779090286947280e+01 3.379337354447982555e+00 1.310793347277973275e+01 3.379337354447982555e+00 4.033936735616564562e+01 -5.761314702963501233e+00 1.310793347277973275e+01 -5.761314702963501233e+00 -5.131606709234843855e+00
-1.339296118168489613e+01 -3.886730585298017626e+00 8.652042663512082399e+00 -3.886730585298017626e+00 -2.174865922046835376e+00 9.391135306921698955e+00 8.652042663512082399e+00 9.391135306921698955e+00 2.154818647085878425e+01
1.614862196556234153e+01 1.195440002171178406e+01 -8.205332079935693912e+00 1.195440002171178406e+01 1.873485328305522657e+01 -1.407271378020594210e-01 -8.205332079935693912e+00 -1.407271378020594210e-01 3.054016489720397409e+00
-9.843895764083146815e+00 2.809427633907760402e+00 1.290681844820497126e+01 2.809427633907760402e+00 -2.024388409878283923e+01 1.592949413653073742e+00 1.290681844820497126e+01 1.592949413653073742e+00 -3.166309638079388122e+01
-5.945908598445110549e+00 -7.430182462501132790e+00 5.150666930034025981e+00 -7.430182462501132790e+00 -1.220282483926813022e+01 5.529246933441035461e-01 5.150666930034025981e+00 5.529246933441035461e-01 -2.200321673309239401e+01
-5.926789521991792320e+00 -9.071541481638715210e-01 -1.050673203417538393e-01 -9.071541481638715210e-01 -4.386947527806565716e+00 -3.057594693846587552e-01 -1.050673203417538393e-01 -3.057594693846587552e-01 -1.555622204402799724e+01
-1.755222335018514102e+01 1.398791178981974248e+00 -5.146244444349931335e+00 1.398791178981974248e+00 -8.902825843796497551e+00 -3.556913684537510445e+00 -5.146244444349931335e+00 -3.556913684537510445e+00 -6.866448123504333090e+00
-1.208743630326377527e+01 5.038958853635217006e-01 -5.902511620511128321e-01 5.038958853635217006e-01 -1.070214379528219872e+01 1.153401002997084035e+01 -5.902511620511128321e-01 1.153401002997084035e+01 2.141516799040716634e+01
-4.163594771707590070e+01 -8.262607262932748498e+00 3.619661045711016545e+00 -8.262607262932748498e+00 -5.118487429411774770e+01 3.827689632666219310e+00 3.619661045711016545e+00 3.827689632666219310e+00 -3.470996030322677939e+01
1.989373758411630533e+01 -5.443207788995940710e+00 -2.374349444427682698e+00 -5.443207788995940710e+00 7.409946758369371445e+00 9.909028120319181454e+00 -2.374349444427682698e+00 9.909028120319181454e+00 -1.235644497057920610e+01
-1.006048646656243051e+01 2.862665204543494379e+00 5.247226580247868810e+00 2.862665204543494379e+00 -1.239684665814019482e+01 1.634523005923065853e+01 5.247226580247868810e+00 1.634523005923065853e+01 -2.029779099084651861e+01
1.984155732863193577e+01 -1.386161052011117834e+00 -1.273769821114193768e+01 -1.386161052011117834e+00 2.001842453041533076e+01 -3.137974073775870121e+00 -1.273769821114193768e+01 -3.137974073775870121e+00 -1.310966884403644706e+01
-4.811945769410509222e+00 2.703728386744269852e+00 -1.589569015771112204e+00 2.703728386744269852e+00 -1.109677112610203764e+01 -2.252111551749664375e+00 -1.589569015771112204e+00 -2.252111551749664375e+00 -8.869031505332754861e+00
-8.710912318903536899e+00 -1.197013590885537582e+01 5.274556932093784845e+00 -1.197013590885537582e+01 -1.862645777417436932e+01 1.166905675732459002e+01 5.274556932093784845e+00 1.166905675732459002e+01 -6.455326632519847863e+01
7.912995732022963580e+00 7.722481596368641732e+00 -2.828353606941073295e+00 7.722481596368641732e+00 1.182446829119360210e+01 -3.346962598745755635e+00 -2.828353606941073295e+00 -3.346962598745755635e+00 -1.912404597658811323e+00
7.353186296960559254e+00 -1.027348250592620005e+01 -1.994106494341858138e+01 -1.027348250592620005e+01 1.965987581984298416e+01 -1.808033249232616413e+01 -1.994106494341858138e+01 -1.808033249232616413e+01 -1.106138946303246939e+01
-1.822491576244425460e+01 -4.185705550512970774e+00 -4.234753280879394843e+00 -4.185705550512970774e+00 -2.892428143737311608e+00 -4.251691769206698446e+00 -4.234753280879394843e+00 -4.251691769206698446e+00 -4.338504111339132052e+00
3.605371976952536528e+01 3.811159241083398541e+00 -1.412714866217960941e+00 3.811159241083398541e+00 4.508448306448791953e+01 5.791618012158993301e-01 -1.412714866217960941e+00 5.791618012158993301e-01 5.374507069857970976e+01
-8.508068081795833848e+00 -2.290974633094340795e+00 -8.547399847617173085e-01 -2.290974633094340795e+00 -1.978293346773233097e+00 -5.253611065111226885e+00 -8.547399847617173085e-01 -5.253611065111226885e+00 1.025906105600812879e+01
2.426259547079015277e+01 4.478769044719655312e+00 1.880165682182639797e+00 4.478769044719655312e+00 1.638283635589303344e+01 3.106624234628974079e+00 1.880165682182639797e+00 3.106624234628974079e+00 1.803290414910510364e+01
2.962272308252172337e+01 -3.997842053099092574e+00 -5.595698909170155888e-01 -3.997842053099092574e+00 -8.343222788497079989e-01 4.929770694972788192e+00 -5.595698909170155888e-01 4.929770694972788192e+00 -2.879943274697950528e+01
-1.775490792908548165e+00 8.451574332775228626e+00 -1.930016909234945732e+00 8.451574332775228626e+00 -1.502426150693548834e+01 2.369684666454709987e+00 -1.930016909234945732e+00 2.369684666454709987e+00 -2.410672274267130177e+01
-1.698327173154545733e+01 8.392377198268285099e+00 7.640084824635815508e+00 8.392377198268285099e+00 -1.943761967025729476e+01 9.443017670480395864e+00 7.640084824635815508e+00 9.443017670480395864e+00 -8.352176984438202112e+00
-5.096678681612701212e+00 1.245440602501973526e+00 -3.732282128268167742e+00 1.245440602501973526e+00 -1.616403052572505938e+00 -1.984252292842611842e+00 -3.732282128268167742e+00 -1.984252292842611842e+00 1.778003846633164839e-02
6.730887669709218812e+00 -6.667704258231752945e+00 2.449135207035007422e+00 -6.667704258231752945e+00 1.078736574352729960e+01 2.243685723765323381e+00 2.449135207035007422e+00 2.243685723765323381e+00 1.166595348823123679e+01
4.704383659398533268e+01 4.346867297527887253e+00 -4.522783503335340294e-01 4.346867297527887253e+00 3.541322489068409851e+01 -2.793110289008877700e+00 -4.522783503335340294e-01 -2.793110289008877700e+00 1.600718375250259840e+01
-5.867794345667505240e+00 -4.020913279305078802e+00 -5.638051827598077992e+00 -4.020913279305078802e+00 6.897244248052425419e+00 4.962603326597371023e+00 -5.638051827598077992e+00 4.962603326597371023e+00 -2.087124528721714967e+01
-5.045045626054226062e+01 1.060751514325110989e+01 -3.548244949676127580e-01 1.060751514325110989e+01 -3.097600093349443640e+01 7.836266722457843947e+00 -3.548244949676127580e-01 7.836266722457843947e+00 -3.205670708713130779e+01
-7.601654389088444042e+00 -4.655025892970712675e+00 -6.761236269139691224e+00 -4.655025892970712675e+00 8.440009295192547611e+00 4.609395771082235527e+00 -6.761236269139691224e+00 4.609395771082235527e+00 -3.744593702665054735e+01
-1.962847776684309764e+01 4.357950683757570332e+00 6.304896074929721372e+00 4.357950683757570332e+00 -7.119560181893403339e+00 -4.539252913081842089e-01 6.304896074929721372e+00 -4.539252913081842089e-01 1.682563960871807041e+00
-1.387441111511087399e+00 8.769360817115403606e+00 3.982067187231079775e-01 8.769360817115403606e+00 3.879465895663805952e+00 -7.486196757207107311e+00 3.982067187231079775e-01 -7.486196757207107311e+00 9.810950838219500980e+00
4.033384062239537826e+01 -3.799787920369759320e+00 -1.189900539042954231e+00 -3.799787920369759320e+00 2.737635545453558095e+01 5.805510214987329443e-01 -1.189900539042954231e+00 5.805510214987329443e-01 -9.715300673236079376e+00
-1.803168437387222411e+01 2.539962981032286571e+00 -1.838270276689646154e+00 2.539962981032286571e+00 -1.342437527967384092e+01 -4.276247440112553311e-01 -1.838270276689646154e+00 -4.276247440112553311e-01 -1.464130281196734629e+01
-5.639025077989028034e+01 -1.255910862896405078e+01 4.868488235219597726e+00 -1.255910862896405078e+01 -3.568663626434113212e+01 9.616787367764876748e+00 4.868488235219597726e+00 9.616787367764876748e+00 -6.075629562048935561e+00
9.175165635054689517e+00 1.523291458351163286e+01 6.208374909925470225e-02 1.523291458351163286e+01 1.391667292124640731e+01 -6.695983688715114290e+00 6.208374909925470225e-02 -6.695983688715114290e+00 -2.988974858156757008e+01
-1.120889469856045118e+01 2.289425115007771849e-01 -3.539644496717922806e+00 2.289425115007771849e-01 -6.040410603397347700e+00 3.326155314908270100e+00 -3.539644496717922806e+00 3.326155314908270100e+00 1.026098363630214561e+00
-1.934064619709649335e+01 2.665810277688267949e+00 3.263812678326587058e+00 2.665810277688267949e+00 -3.401028238958241801e+00 9.833220678934599945e+00 3.263812678326587058e+00 9.833220678934599945e+00 5.153599195889966289e+00
-2.049550990709765941e+01 2.402853936411329661e-02 -7.114920635091507073e+00 2.402853936411329661e-02 -2.131014752091866171e+01 -1.203560377691449190e+01 -7.114920635091507073e+00 -1.203560377691449190e+01 -4.347555602036514699e+01
4.689201784273934948e+01 -1.062160435579496465e+01 3.701105647754618366e-01 -1.062160435579496465e+01 5.573743556803171373e+01 -7.879804146153167821e+00 3.701105647754618366e-01 -7.879804146153167821e+00 4.348413858323805670e+01
5.574242365648607311e+00 -1.296669754898487570e+00 1.450572808320127649e+01 -1.296669754898487570e+00 -6.972577529694750531e+00 -6.421949506627527171e+00 1.450572808320127649e+01 -6.421949506627527171e+00 -1.117572236601796831e+01
-3.252391137054310377e+01 -3.242214252224200344e+00 -1.127929762365563304e+00 -3.242214252224200344e+00 -2.660203092897526389e+01 6.718239122764344096e+00 -1.127929762365563304e+00 6.718239122764344096e+00 -6.571587748949733410e+00
-2.398866883026010921e+00 -5.094687607234959614e+00 2.658157690817164465e+00 -5.094687607234959614e+00 5.439252184763827103e+00 -1.108213412005358389e+00 2.658157690817164465e+00 -1.108213412005358389e+00 7.472459667852079157e+00
-1.614373145722089120e+01 4.309966361288208425e+00 5.876639184921116366e-01 4.309966361288208425e+00 -1.113931227033552318e+01 -6.129488994242994870e+00 5.876639184921116366e-01 -6.129488994242994870e+00 -1.645417928062415314e+01
-2.691129800903549452e+01 -1.492463753908914015e+01 8.164505060262609248e+00 -1.492463753908914015e+01 -7.893010602626766570e+00 -8.832807375556033236e+00 8.164505060262609248e+00 -8.832807375556033236e+00 2.138938485033456516e+01
1.623741317578480903e+01 -5.208112707853497447e+00 7.958898232286364838e+00 -5.208112707853497447e+00 1.353455101097012481e+01 -1.100416559531448080e+01 7.958898232286364838e+00 -1.100416559531448080e+01 -2.400734033391788103e+01
3.988282161291191130e+01 1.770471063895871167e+00 5.910453132709600155e+00 1.770471063895871167e+00 2.525422356144003189e+01 -8.311781547820464411e+00 5.910453132709600155e+00 -8.311781547820464411e+00 -6.917313064507129461e+00
-3.780415675658538532e+00 3.273169850912098777e-01 -4.013126067063936375e+00 3.273169850912098777e-01 6.321157538107449625e+00 -1.455893467940165564e+01 -4.013126067063936375e+00 -1.455893467940165564e+01 -6.910136407332343467e+00
7.300711649986861573e+01 4.054686843369841753e+00 -3.160516752387740880e+00 4.054686843369841753e+00 4.321515037774466350e+01 4.359245124002528726e+00 -3.160516752387740880e+00 4.359245124002528726e+00 -2.713601806468631139e+00
-2.360106996586742767e+01 2.360640186524405326e+00 -6.432530526092101741e-01 2.360640186524405326e+00 -1.657004609345625568e+01 -9.118042282316555225e-01 -6.432530526092101741e-01 -9.118042282316555225e-01 -3.706108624306250476e+01
3.504181701657208237e+01 3.369788995935701359e-01 1.441619901435867046e+00 3.369788995935701359e-01 3.147542067637615659e+01 -1.816245610878211458e+00 1.441619901435867046e+00 -1.816245610878211458e+00 3.125907533621380807e+01
1.352717370556623422e+01 1.842729076787034259e+01 4.349855731724706409e+00 1.842729076787034259e+01 2.107442047553771047e+01 1.267110417054615024e+00 4.349855731724706409e+00 1.267110417054615024e+00 -4.062798696307703850e+00
-3.226829395193115602e+01 1.120103542697023613e+01 7.247337945139637583e+00 1.120103542697023613e+01 -4.484180652799639510e+00 7.064549843569084331e+00 7.247337945139637583e+00 7.064549843569084331e+00 -5.636490978348520642e-01
5.621990289835185450e+01 4.532160905119188010e-01 6.080052550907289799e+00 4.532160905119188010e-01 4.663571915529364276e+01 6.506604890536470620e+00 6.080052550907289799e+00 6.506604890536470620e+00 5.080750660907864535e+00
3.600696346997673913e+01 -2.662150203704045648e+00 -2.345765079125219366e+00 -2.662150203704045648e+00 3.180573731904960511e+01 -4.940822930200153174e+00 -2.345765079125219366e+00 -4.940822930200153174e+00 2.965614279123283481e+01
-1.466758790248803557e+01 5.173844296830551137e+00 -1.506081477296278504e+00 5.173844296830551137e+00 -6.074301391075507262e+00 1.742619746872190900e+00 -1.506081477296278504e+00 1.742619746872190900e+00 1.644729663056830304e+01
2.415651217287395980e+01 -2.984843234244502597e+00 -4.469171873043897847e+00 -2.984843234244502597e+00 2.300714947549069578e+01 8.135839847535886182e-01 -4.469171873043897847e+00 8.135839847535886182e-01 -1.559778121084692870e+01
-3.352009905749851271e+01 3.938929408587345526e-01 5.002381767248271771e+00 3.938929408587345526e-01 -1.707709562967823302e+01 -1.481981417870490247e+01 5.002381767248271771e+00 -1.481981417870490247e+01 -5.196885888814594523e+01
9.288061408321965473e+00 -1.147711263859052799e+01 -9.184965821932465246e+00 -1.147711263859052799e+01 8.298083578662412307e+00 -1.335622309266915719e+00 -9.184965821932465246e+00 -1.335622309266915719e+00 -3.894105251132095447e+01
1.304496503432999432e+01 -1.048260919116457224e+01 9.459594866089082288e+00 -1.048260919116457224e+01 3.481941643302182143e+00 2.182724023426387827e+00 9.459594866089082288e+00 2.182724023426387827e+00 -1.201441833187873121e+00
-2.582283201717956000e+00 -2.760926493503884860e+00 1.594383025391988795e+01 -2.760926493503884860e+00 -1.624615951487045251e+01 -1.622712707597560033e+00 1.594383025391988795e+01 -1.622712707597560033e+00 -5.602089967073374055e+01
-1.508029274180326063e+01 3.488364888166148869e+00 6.900689256778389513e+00 3.488364888166148869e+00 -2.250006526139759711e+00 -5.727080528316283115e+00 6.900689256778389513e+00 -5.727080528316283115e+00 2.341613524539657987e-01
3.933511466374145726e+01 2.219261705935759554e+00 4.642592220234466049e-01 2.219261705935759554e+00 3.041893631791094066e+01 -4.332833423264665029e+00 4.642592220234466049e-01 -4.332833423264665029e+00 7.994635695916461948e+00
1.672568315886599422e+01 5.126261552639463481e+00 1.182367002498695419e+00 5.126261552639463481e+00 2.695884467262104511e+00 5.863185861576939217e+00 1.182367002498695419e+00 5.863185861576939217e+00 -2.905762298102402141e+01
2.465913213899827383e+01 2.082062639144345084e+00 7.598034833086340090e-01 2.082062639144345084e+00 3.045791076400150743e+01 -2.789185967399405719e-01 7.598034833086340090e-01 -2.789185967399405719e-01 1.170248185454312306e+01
3.670784900683110408e+01 1.979067960822664674e+00 2.565226411036087395e+00 1.979067960822664674e+00 3.936962363936569176e+01 -4.266393477170414172e+00 2.565226411036087395e+00 -4.266393477170414172e+00 3.518678806848808449e+01
-1.563522579463108464e+01 -1.029266796925395688e+01 -9.224411796119846851e-01 -1.029266796925395688e+01 -1.314385669963044734e+01 -5.992730488090644236e+00 -9.224411796119846851e-01 -5.992730488090644236e+00 -1.634217829813574596e+01
-1.757650539557877778e+01 3.799881115831813094e+00 -2.113876645208174310e+00 3.799881115831813094e+00 -5.716222482129118987e+00 4.675572024109148295e+00 -2.113876645208174310e+00 4.675572024109148295e+00 6.375492539573933470e+00
4.287994598389377465e+00 6.836081352866912653e+00 -8.677462797470891331e+00 6.836081352866912653e+00 9.769449189395647437e+00 -1.333842518085941897e+00 -8.677462797470891331e+00 -1.333842518085941897e+00 -1.815086641460066152e+00
1.380443018922826726e+00 1.665746834497260664e+01 -5.951137984024838623e+00 1.665746834497260664e+01 -9.449519997093982937e+00 -1.128970764271973737e+00 -5.951137984024838623e+00 -1.128970764271973737e+00 -4.734386603720336595e+00
5.013927572892813878e+00 -1.279212218228610709e+01 -3.087100514063645829e+00 -1.279212218228610709e+01 1.569789631355778958e+01 3.133754991805961509e+00 -3.087100514063645829e+00 3.133754991805961509e+00 -4.278560240384845770e+01
