2.529160000000000075e+00 5.985999999999999654e-02 2.631279999999999841e+00 2.931669999999999998e+00 1.019477999999999973e+01 7.874349999999999739e+00 2.646799999999999820e+00 5.122760000000000424e+00 2.595680000000000209e+00 2.860300000000000065e+00 5.198100000000000165e+00 7.639850000000000030e+00 8.108999999999999542e-02 2.723279999999999923e+00 2.698440000000000172e+00 1.643000000000000016e-02 2.615369999999999973e+00 8.410109999999999530e+00 9.914690000000000225e+00 7.683239999999999625e+00 2.796229999999999993e+00 1.130599999999999938e-01 8.013690000000000424e+00 8.067149999999999821e+00 8.040770000000000195e+00 3.140229999999999855e+00 5.048219999999999708e+00 7.932369999999999699e+00 2.559909999999999908e+00 1.056874999999999964e+01 7.538750000000000284e+00 7.781250000000000000e+00 5.101239999999999775e+00 7.930119999999999614e+00 7.617149999999999643e+00 1.064204999999999934e+01 4.953560000000000407e+00 1.007160999999999973e+01 1.037074999999999925e+01 5.383650000000000269e+00 3.976199999999999735e-01 5.299269999999999925e+00 5.138309999999999711e+00 5.366329999999999600e+00 2.903399999999999870e-01 5.152029999999999887e+00 5.345810000000000173e+00 5.502360000000000362e+00 5.532759999999999678e+00 2.895230000000000192e+00 2.471410000000000107e+00 5.408579999999999721e+00 2.426769999999999872e+00 7.944239999999999746e+00 5.138189999999999813e+00 8.135680000000000689e+00 2.603520000000000056e+00 5.580460000000000420e+00 8.212070000000000647e+00 7.701380000000000337e+00 7.804249999999999687e+00 1.032737999999999978e+01 2.902099999999999902e+00 8.046709999999999141e+00 2.384900000000000075e-01 8.300720000000000098e+00 8.180709999999999482e+00 5.344820000000000348e+00 2.445479999999999876e+00 7.524239999999999817e+00 5.176040000000000418e+00 8.231120000000000658e+00 2.200900000000000079e-01 9.773870000000000502e+00 3.022599999999999731e-01 1.556200000000000083e-01 1.345399999999999929e-01 5.457080000000000375e+00 1.759999999999999898e-01 5.390649999999999942e+00 1.053754999999999953e+01 1.942999999999999935e-02 5.662460000000000271e+00 5.894849999999999923e+00 2.566059999999999786e+00 2.489759999999999973e+00 5.128359999999999808e+00 2.970759999999999845e+00 2.646389999999999798e+00 1.053434999999999988e+01 2.746570000000000178e+00 7.999329999999999607e+00 5.023789999999999978e+00 2.497739999999999849e+00 7.573240000000000194e+00 9.972000000000000308e-02 6.646589999999999776e+00 4.089940000000000353e+00 1.378710000000000102e+00 8.619880000000000209e+00 4.855100000000000193e+00 6.382850000000000357e+00 1.417140000000000066e+00 8.348670000000000258e+00 1.590529999999999999e+00 9.851020000000000110e+00 9.732039999999999580e+00 7.249609999999999665e+00 3.945959999999999912e+00 1.175510000000000055e+00 3.903970000000000162e+00 4.485739999999999839e+00 9.191860000000000142e+00 6.179960000000000342e+00 3.495559999999999778e+00 6.314919999999999867e+00 4.318679999999999630e+00 3.846600000000000019e+00 9.883699999999999708e-01 9.326900000000000190e+00 4.368999999999999773e+00 3.981910000000000061e+00 3.352349999999999941e+00 6.311619999999999564e+00 3.857779999999999987e+00 9.347369999999999735e+00 3.507039999999999935e+00 9.244770000000000820e+00 9.742399999999999949e-01 6.631020000000000358e+00 9.328829999999999956e+00 9.092520000000000380e+00 7.906559999999999810e+00 1.568480000000000096e+00 1.800159999999999982e+00 8.623450000000000060e+00 1.935599999999999987e+00 7.436219999999999608e+00 9.380200000000000315e+00 6.413960000000000328e+00 1.209549999999999903e+00 9.452120000000000744e+00 7.333429999999999893e+00 6.458339999999999748e+00 9.120609999999999218e+00 4.000409999999999577e+00 3.658959999999999990e+00 8.645429999999999282e+00 3.988370000000000193e+00 9.336499999999999133e+00 9.022629999999999484e+00 9.221619999999999706e+00 3.925839999999999996e+00 9.085919999999999774e+00 9.033759999999999124e+00 9.559710000000000818e+00 3.956599999999999895e+00 8.777499999999999858e+00 8.895709999999999340e+00 3.733649999999999913e+00 1.387669999999999959e+00 6.845390000000000086e+00 6.490059999999999718e+00 6.769809999999999661e+00 1.421319999999999917e+00 4.219909999999999606e+00 6.514000000000000234e+00 6.762550000000000061e+00 1.214560000000000084e+00 1.238629999999999898e+00 3.632429999999999826e+00 1.265339999999999909e+00 3.595289999999999875e+00 9.752499999999999503e+00 9.911200000000000010e-01 5.971709999999999852e+00 3.166640000000000121e+00 9.961400000000000254e-01 6.681949999999999612e+00 9.176000000000000156e+00 4.706879999999999953e+00 1.448280000000000012e+00 1.022189999999999932e+00 6.415919999999999845e+00 1.388779999999999903e+00 6.665230000000000210e+00 6.654749999999999943e+00 1.920360000000000067e+00 4.216090000000000337e+00 6.668580000000000396e+00 1.283539999999999903e+00 9.849650000000000460e+00 5.862639999999999851e+00 7.019790000000000418e+00 4.195350000000000357e+00 7.059910000000000352e+00 6.631969999999999921e+00 6.674419999999999575e+00 4.165709999999999802e+00 3.830449999999999910e+00 6.682000000000000162e-01 5.993710000000000093e+00 4.217649999999999899e+00 6.811969999999999636e+00 8.556540000000000035e+00 9.024620000000000530e+00 1.141410000000000036e+00 6.300830000000000375e+00 9.500730000000000786e+00 3.972420000000000062e+00 8.882600000000000051e+00 1.364900000000000002e+00 4.420729999999999826e+00 9.343569999999999709e+00 1.438490000000000046e+00 9.965600000000000236e+00 8.736029999999999518e+00 6.171059999999999768e+00 4.198100000000000165e+00 8.726810000000000400e+00 6.549190000000000289e+00 9.002829999999999444e+00 6.677800000000000402e+00 4.475590000000000401e+00 3.931369999999999809e+00 6.353069999999999773e+00 6.430699999999999861e+00 9.450110000000000454e+00 5.986220000000000319e+00 9.543369999999999465e+00 1.176830000000000043e+00 7.108469999999999622e+00 9.025710000000000122e+00 6.506759999999999877e+00 1.422549999999999981e+00 7.167599999999999527e-01 1.203940000000000010e+00 8.988500000000000378e-01 1.882489999999999997e+00 6.443909999999999805e+00 1.960739999999999927e+00 5.610789999999999722e+00 5.928700000000000081e-01 1.544399999999999995e+00 6.799360000000000070e+00 6.826979999999999826e+00 1.266990000000000061e+00 3.785989999999999966e+00 4.685830000000000162e+00 6.839100000000000179e-01 4.357540000000000191e+00 7.420490000000000030e+00 1.096000000000000085e+00 8.565340000000000842e+00 4.267360000000000042e+00 1.455899999999999972e+00 9.362379999999999924e+00 9.508369999999999322e+00 9.181309999999999860e+00 3.566339999999999844e+00 1.128830000000000000e+00 3.891119999999999912e+00 3.801439999999999930e+00 6.144840000000000302e+00 3.884269999999999889e+00 6.190070000000000405e+00 9.568490000000000606e+00 1.657820000000000071e+00 9.129269999999999996e+00 6.840440000000000076e+00 2.061780000000000168e+00 3.265019999999999811e+00 1.790170000000000039e+00 3.395379999999999843e+00 3.161049999999999915e+00 8.745150000000000645e+00 3.845270000000000188e+00 6.536469999999999558e+00 1.704329999999999901e+00 3.832219999999999960e+00 8.908860000000000667e+00 3.581500000000000128e+00
2.749429999999999819e+00 1.021030000000000015e+01 2.785149999999999793e+00 3.016410000000000036e+00 9.903000000000000691e-02 8.467480000000000118e+00 2.596210000000000129e+00 5.261529999999999596e+00 2.828289999999999971e+00 2.779090000000000060e+00 5.517019999999999591e+00 8.338649999999999451e+00 7.939999999999999142e-03 2.542569999999999997e+00 2.747199999999999864e+00 4.221099999999999852e-01 2.642079999999999984e+00 8.176589999999999137e+00 1.039014000000000060e+01 8.209039999999999893e+00 2.419160000000000199e+00 1.039611999999999981e+01 8.046889999999999432e+00 7.763020000000000032e+00 8.221220000000000638e+00 2.577490000000000059e+00 5.468119999999999870e+00 8.397019999999999484e+00 3.058570000000000011e+00 1.078334000000000081e+01 8.224579999999999558e+00 7.980999999999999872e+00 4.898670000000000080e+00 8.383770000000000167e+00 7.998730000000000118e+00 1.051304000000000016e+01 5.015380000000000393e+00 1.012399999999999967e-01 1.084754000000000040e+01 5.648209999999999731e+00 6.710000000000000686e-02 5.499480000000000146e+00 5.411859999999999893e+00 4.930589999999999584e+00 1.068643999999999927e+01 5.350389999999999979e+00 4.932479999999999976e+00 5.411900000000000155e+00 4.870890000000000164e+00 2.498209999999999820e+00 2.696880000000000166e+00 5.241050000000000431e+00 2.669090000000000185e+00 8.268480000000000274e+00 5.530269999999999797e+00 8.203889999999999461e+00 2.411709999999999798e+00 5.382430000000000270e+00 8.108650000000000801e+00 7.940140000000000420e+00 7.758589999999999876e+00 2.475999999999999868e-01 2.453019999999999978e+00 7.416179999999999772e+00 4.360700000000000132e-01 8.324479999999999436e+00 7.510919999999999597e+00 5.404939999999999856e+00 2.987429999999999808e+00 7.771099999999999675e+00 5.211809999999999832e+00 8.113799999999999457e+00 1.081700000000000023e-01 1.713000000000000078e-01 1.028993999999999964e+01 5.158599999999999852e-01 2.287899999999999934e-01 5.533570000000000100e+00 1.709700000000000109e-01 5.632290000000000241e+00 1.036274000000000051e+01 3.741999999999999771e-01 5.344949999999999868e+00 5.482079999999999842e+00 2.719590000000000174e+00 2.524109999999999854e+00 5.638919999999999710e+00 2.282529999999999948e+00 2.556740000000000013e+00 4.555699999999999750e-01 2.915620000000000100e+00 7.587989999999999569e+00 5.786439999999999806e+00 2.798750000000000071e+00 7.799750000000000405e+00 1.088463999999999920e+01 1.015409999999999968e+01 3.634479999999999933e+00 6.746999999999999664e-01 1.085820000000000007e+00 4.107879999999999754e+00 7.194189999999999863e+00 9.134100000000000108e+00 9.662340000000000373e+00 7.433199999999999807e-01 9.141769999999999285e+00 4.367130000000000400e+00 6.220850000000000435e+00 4.376520000000000188e+00 5.761199999999999655e-01 3.668460000000000054e+00 3.833110000000000017e+00 1.648989999999999956e+00 9.408459999999999823e+00 1.870200000000000085e+00 6.569989999999999775e+00 4.001290000000000013e+00 4.174900000000000055e+00 6.680250000000000021e+00 9.911220000000000141e+00 6.143640000000000434e+00 3.687959999999999905e+00 3.759389999999999787e+00 4.369360000000000355e+00 4.266720000000000290e+00 8.678539999999999921e+00 3.968269999999999964e+00 8.976219999999999644e+00 8.472699999999999676e-01 4.248319999999999652e+00 8.984199999999999520e+00 6.124139999999999695e+00 6.016099999999999781e-01 1.308300000000000018e+00 1.326969999999999983e+00 9.076499999999999346e+00 1.611520000000000064e+00 6.959749999999999659e+00 7.177769999999999762e+00 7.439930000000000376e+00 1.767230000000000079e+00 9.206950000000000855e+00 6.800290000000000390e+00 8.980480000000000018e+00 8.920730000000000715e+00 4.024029999999999774e+00 3.283770000000000078e+00 9.132870000000000488e+00 4.015410000000000146e+00 9.128420000000000201e+00 8.969780000000000086e+00 9.532320000000000348e+00 3.165550000000000086e+00 9.508559999999999235e+00 9.832390000000000185e+00 8.592309999999999448e+00 6.778039999999999843e+00 4.104000000000000092e+00 8.394300000000000095e-01 4.066250000000000142e+00 9.728900000000000325e-01 6.727000000000000313e+00 4.406119999999999592e+00 6.124579999999999913e+00 1.963170000000000082e+00 4.273450000000000415e+00 6.493829999999999991e+00 5.197189999999999976e+00 1.027470000000000105e+00 3.760759999999999881e+00 4.464140000000000441e+00 1.383639999999999981e+00 1.503900000000000015e+00 9.400700000000000500e+00 5.079599999999999671e-01 8.869109999999999161e+00 4.206559999999999633e+00 1.224590000000000067e+00 7.034729999999999706e+00 9.382289999999999353e+00 8.038000000000000256e+00 2.075439999999999952e+00 1.578330000000000011e+00 6.536550000000000082e+00 1.317800000000000082e+00 6.954600000000000115e+00 6.755849999999999689e+00 1.116239999999999899e+00 4.222559999999999647e+00 6.452759999999999607e+00 1.334249999999999936e+00 1.008047000000000004e+01 6.701439999999999841e+00 6.227109999999999701e+00 4.580059999999999576e+00 6.997029999999999639e+00 6.046909999999999563e+00 9.806150000000000588e+00 4.587570000000000370e+00 3.285089999999999844e+00 8.206900000000000306e-01 6.754249999999999865e+00 6.819580000000000197e+00 7.363439999999999763e+00 6.331959999999999589e+00 1.027790000000000070e+01 1.452290000000000081e+00 6.744749999999999801e+00 9.148130000000000095e+00 6.655109999999999637e+00 9.713879999999999626e+00 1.315409999999999968e+00 4.079039999999999999e+00 8.983969999999999345e+00 1.370610000000000106e+00 1.002707000000000015e+01 9.316050000000000608e+00 6.741810000000000080e+00 6.257889999999999731e+00 9.492150000000000531e+00 6.683290000000000397e+00 7.123199999999999532e-01 6.751389999999999780e+00 3.871300000000000185e+00 6.588460000000000427e+00 6.577250000000000263e+00 3.685140000000000082e+00 9.346489999999999299e+00 6.418779999999999930e+00 8.746140000000000470e+00 4.176610000000000156e+00 6.918969999999999843e+00 9.013669999999999405e+00 9.564659999999999940e+00 1.934479999999999977e+00 1.158519999999999994e+00 4.337439999999999962e+00 1.349480000000000013e+00 1.480900000000000105e+00 6.693050000000000388e+00 2.110419999999999963e+00 6.122939999999999827e+00 1.137399999999999967e+00 9.328559999999999519e+00 6.683819999999999872e+00 3.619110000000000049e+00 1.574480000000000102e+00 3.659629999999999939e+00 1.951249999999999929e+00 1.219670000000000032e+00 6.547089999999999854e+00 7.014140000000000263e+00 9.392720000000000624e+00 9.315179999999999794e+00 6.400059999999999860e+00 1.782419999999999893e+00 9.664410000000000167e+00 1.023273999999999972e+01 1.679729999999999945e+00 4.338980000000000281e+00 9.680680000000000618e+00 3.325029999999999930e+00 3.401120000000000143e+00 3.854439999999999866e+00 1.906109999999999971e+00 8.695510000000000517e+00 1.745460000000000012e+00 1.715170000000000083e+00 9.445560000000000400e+00 6.962340000000000195e+00 3.102460000000000218e+00 1.075849999999999973e+00 1.346300000000000052e+00 3.806410000000000071e+00 4.178510000000000169e+00 6.435060000000000002e+00 3.913959999999999884e+00 9.185109999999999886e+00 9.081189999999999429e+00 3.800590000000000135e+00 8.373979999999999535e+00 3.201680000000000081e+00
2.979359999999999786e+00 1.036720000000000041e+01 2.645690000000000097e+00 2.683429999999999982e+00 3.699500000000000011e-01 8.359099999999999753e+00 3.049360000000000070e+00 4.974059999999999704e+00 2.991480000000000139e+00 2.682010000000000005e+00 5.316499999999999559e+00 7.947099999999999831e+00 1.025899000000000072e+01 2.635660000000000114e+00 2.486340000000000217e+00 1.022358999999999973e+01 2.822820000000000107e+00 8.471209999999999241e+00 4.404699999999999727e-01 7.857759999999999856e+00 2.890350000000000197e+00 3.722300000000000053e-01 7.690879999999999939e+00 7.610940000000000261e+00 7.691320000000000157e+00 2.551649999999999974e+00 5.561149999999999594e+00 7.494510000000000005e+00 2.718910000000000160e+00 1.633400000000000130e-01 8.037900000000000489e+00 8.088179999999999481e+00 4.969870000000000232e+00 7.537700000000000067e+00 8.066810000000000258e+00 1.048521000000000036e+01 5.334629999999999761e+00 1.810499999999999887e-01 1.045280999999999949e+01 5.080049999999999955e+00 1.013519999999999932e+01 5.349669999999999703e+00 4.733329999999999593e+00 5.599560000000000315e+00 1.057371000000000016e+01 5.451800000000000423e+00 5.420770000000000088e+00 5.018749999999999822e+00 5.363360000000000127e+00 2.793509999999999938e+00 2.768969999999999931e+00 5.159410000000000274e+00 2.496340000000000003e+00 8.320589999999999264e+00 5.690660000000000274e+00 7.808970000000000411e+00 2.205900000000000194e+00 5.010449999999999626e+00 7.501490000000000435e+00 7.785050000000000026e+00 8.139160000000000394e+00 1.409100000000000075e-01 2.687850000000000072e+00 7.617720000000000269e+00 1.005139999999999922e+01 7.817029999999999923e+00 8.336859999999999715e+00 5.262299999999999756e+00 2.305790000000000006e+00 7.697720000000000340e+00 5.229070000000000107e+00 8.135099999999999554e+00 1.020339000000000063e+01 7.983999999999999431e-02 1.062081000000000053e+01 1.026558999999999955e+01 4.502099999999999991e-01 5.924809999999999910e+00 7.933999999999999386e-02 5.600480000000000125e+00 1.068540999999999919e+01 9.999079999999999302e+00 5.221790000000000376e+00 5.377229999999999954e+00 2.529710000000000125e+00 2.491960000000000175e+00 5.248910000000000409e+00 2.681799999999999962e+00 2.523080000000000211e+00 5.350700000000000456e-01 2.759850000000000136e+00 7.523299999999999876e+00 5.066250000000000142e+00 2.297010000000000218e+00 8.245219999999999771e+00 1.044130999999999965e+01 9.072050000000000836e+00 4.350240000000000329e+00 6.618600000000000039e-01 9.718999999999999417e+00 3.911220000000000141e+00 6.717190000000000438e+00 9.178789999999999338e+00 9.306950000000000500e+00 9.360000000000000542e-01 9.590820000000000789e+00 9.119559999999999889e+00 6.826929999999999943e+00 4.193500000000000227e+00 1.526780000000000026e+00 3.888069999999999915e+00 3.915200000000000014e+00 1.626349999999999962e+00 9.596980000000000288e+00 4.490809999999999746e+00 6.399060000000000414e+00 3.749270000000000103e+00 3.317089999999999872e+00 6.811169999999999725e+00 8.793810000000000571e+00 3.876860000000000195e+00 4.005180000000000184e+00 4.515450000000000408e+00 3.607390000000000096e+00 4.238749999999999574e+00 9.206609999999999516e+00 6.991690000000000182e+00 9.235960000000000392e+00 6.121559999999999668e+00 4.018299999999999983e+00 9.323570000000000135e+00 9.447580000000000311e+00 8.809480000000000643e+00 1.586200000000000054e+00 1.655399999999999983e+00 8.677619999999999223e+00 1.469030000000000058e+00 6.870610000000000106e+00 9.828260000000000218e+00 6.661950000000000038e+00 1.614770000000000039e+00 8.915749999999999176e+00 6.645019999999999705e+00 6.895179999999999865e+00 9.381859999999999644e+00 4.134990000000000165e+00 3.726329999999999920e+00 8.615069999999999339e+00 3.910350000000000215e+00 9.215159999999999130e+00 9.484579999999999345e+00 6.850950000000000095e+00 4.220979999999999954e+00 8.835219999999999629e+00 9.443329999999999558e+00 9.207770000000000010e+00 3.606679999999999886e+00 4.567000000000000226e-02 9.281899999999999595e-01 4.404959999999999987e+00 8.499620000000000175e+00 5.983229999999999826e+00 4.269949999999999690e+00 7.213009999999999700e+00 8.987000000000000544e-01 4.041059999999999874e+00 5.929529999999999745e+00 6.624080000000000190e+00 1.032100000000000017e+00 1.283090000000000064e+00 7.142769999999999619e+00 9.938599999999999657e-01 1.442010000000000014e+00 1.273749999999999938e+00 8.776399999999999757e-01 7.031679999999999708e+00 9.204200000000000159e+00 1.751589999999999980e+00 8.543770000000000309e+00 6.236250000000000071e+00 6.248619999999999841e+00 1.314820000000000100e+00 1.340130000000000043e+00 6.165040000000000298e+00 1.008070000000000022e+00 6.733170000000000321e+00 7.073459999999999859e+00 6.728550000000000253e+00 1.002899999999999903e+00 6.527190000000000047e+00 6.670250000000000234e+00 6.332690000000000374e+00 6.821860000000000035e+00 1.255009999999999959e+00 4.130790000000000184e+00 6.624450000000000394e+00 8.737399999999999611e-01 9.340799999999999770e+00 6.979029999999999845e+00 6.218049999999999855e+00 3.712689999999999824e+00 6.058169999999999611e+00 5.940800000000000303e+00 9.137389999999999901e+00 6.896889999999999965e+00 4.101289999999999658e+00 1.876190000000000024e+00 6.613109999999999822e+00 3.758719999999999839e+00 7.006300000000000416e+00 6.878619999999999735e+00 8.913380000000000081e+00 3.633669999999999956e+00 9.553140000000000853e+00 9.240909999999999513e+00 3.748040000000000038e+00 9.266420000000000101e+00 1.533230000000000093e+00 4.314750000000000085e+00 9.224859999999999616e+00 1.585749999999999993e+00 9.942800000000000082e+00 1.763360000000000039e+00 6.497939999999999827e+00 8.083399999999999475e-01 8.678179999999999339e+00 6.516879999999999562e+00 9.552920000000000300e+00 6.637900000000000134e+00 3.746509999999999785e+00 4.416540000000000354e+00 5.874690000000000190e+00 3.717550000000000132e+00 1.009932000000000052e+01 4.306750000000000078e+00 9.045619999999999550e+00 3.685709999999999820e+00 6.628169999999999895e+00 8.690670000000000783e+00 8.992129999999999512e+00 1.190209999999999990e+00 1.236590000000000078e+00 3.977149999999999963e+00 1.836100000000000065e+00 1.718460000000000099e+00 9.752549999999999386e+00 1.381699999999999928e+00 9.193530000000000868e+00 1.112719999999999931e+00 1.781930000000000014e+00 6.444829999999999615e+00 3.726570000000000160e+00 1.209859999999999935e+00 3.782329999999999970e+00 4.625189999999999912e+00 1.207049999999999956e+00 4.233189999999999564e+00 9.224500000000000810e+00 2.015080000000000204e+00 8.767440000000000566e+00 3.710080000000000044e+00 1.267160000000000064e+00 9.442520000000000024e+00 9.098359999999999559e+00 1.630449999999999955e+00 3.997640000000000082e+00 1.529910000000000103e+00 3.835900000000000087e+00 3.094700000000000006e+00 7.001739999999999853e+00 6.594409999999999883e+00 9.549319999999999808e+00 9.667099999999999582e-01 1.390149999999999997e+00 5.971409999999999663e+00 6.458599999999999675e+00 4.306020000000000181e+00 4.467229999999999812e+00 1.472059999999999924e+00 3.324510000000000076e+00 5.909699999999999953e-01 6.316930000000000156e+00
2.753350000000000186e+00 4.129499999999999837e-01 2.355449999999999822e+00 2.920790000000000219e+00 2.913600000000000079e-01 8.476689999999999614e+00 2.757070000000000132e+00 5.329920000000000435e+00 1.936229999999999896e+00 2.825039999999999996e+00 5.322519999999999918e+00 8.501689999999999969e+00 9.972999999999999921e-02 2.944069999999999965e+00 2.699160000000000004e+00 1.195500000000000035e-01 2.491089999999999804e+00 7.979910000000000281e+00 2.529799999999999827e-01 7.919069999999999609e+00 2.956440000000000179e+00 1.020595999999999925e+01 8.444919999999999760e+00 7.744720000000000049e+00 7.985560000000000436e+00 2.796069999999999833e+00 5.262579999999999814e+00 8.003030000000000754e+00 2.345940000000000136e+00 1.053706000000000031e+01 7.814289999999999736e+00 7.950960000000000250e+00 5.296120000000000161e+00 7.846630000000000216e+00 7.620899999999999785e+00 6.040799999999999503e-01 5.708120000000000083e+00 2.579799999999999871e-01 2.990900000000000225e-01 4.949950000000000294e+00 1.036247999999999969e+01 5.543779999999999930e+00 5.537589999999999790e+00 5.169789999999999885e+00 1.048436000000000057e+01 5.245370000000000310e+00 5.824160000000000004e+00 5.527960000000000207e+00 5.286749999999999616e+00 2.306379999999999875e+00 2.894190000000000040e+00 5.210499999999999687e+00 2.641340000000000021e+00 8.043049999999999145e+00 5.155669999999999753e+00 7.486480000000000246e+00 2.240909999999999958e+00 5.108999999999999986e+00 7.731670000000000265e+00 8.336360000000000881e+00 7.766659999999999897e+00 1.585499999999999965e-01 2.869819999999999816e+00 7.700719999999999565e+00 6.353000000000000314e-02 8.083809999999999718e+00 8.037330000000000751e+00 5.345699999999999896e+00 3.247170000000000112e+00 8.315989999999999327e+00 5.135119999999999685e+00 8.098449999999999704e+00 2.594299999999999939e-01 1.009728999999999921e+01 2.389000000000000151e-02 1.016215000000000046e+01 3.690800000000000192e-01 5.238050000000000317e+00 2.990700000000000025e-01 5.029160000000000075e+00 1.053895999999999944e+01 5.884099999999999886e-01 5.147350000000000314e+00 5.251739999999999853e+00 2.552770000000000206e+00 2.654619999999999980e+00 5.286819999999999631e+00 2.612899999999999778e+00 2.493110000000000159e+00 5.380000000000000060e-02 2.386789999999999967e+00 7.865509999999999557e+00 6.001190000000000246e+00 2.684839999999999893e+00 8.015480000000000160e+00 1.036675999999999931e+01 9.399639999999999773e+00 4.258989999999999831e+00 1.824619999999999909e+00 1.015962000000000032e+01 4.476860000000000284e+00 7.094199999999999839e+00 9.488720000000000709e+00 9.021020000000000039e+00 1.102910000000000057e+00 8.891780000000000683e+00 9.599589999999999179e+00 6.656290000000000262e+00 3.893269999999999786e+00 1.431710000000000038e+00 3.888230000000000075e+00 3.869289999999999896e+00 1.604829999999999979e+00 9.431950000000000500e+00 4.231489999999999974e+00 6.138650000000000162e+00 3.606879999999999864e+00 3.803469999999999906e+00 6.694259999999999877e+00 9.544380000000000308e+00 3.949920000000000098e+00 3.853790000000000049e+00 2.746150000000000091e+00 4.729619999999999713e+00 4.362720000000000375e+00 8.715799999999999770e+00 3.809470000000000134e+00 8.942679999999999296e+00 4.811440000000000161e+00 4.508420000000000094e+00 9.282209999999999184e+00 1.621259999999999923e+00 9.450979999999999492e+00 1.645049999999999901e+00 8.949799999999999978e-01 9.405300000000000438e+00 1.743919999999999915e+00 6.339959999999999596e+00 8.948339999999999961e+00 6.738550000000000040e+00 1.916160000000000085e+00 8.669040000000000745e+00 7.097310000000000230e+00 7.259179999999999744e+00 9.511979999999999436e+00 3.948970000000000091e+00 4.712379999999999569e+00 9.585720000000000240e+00 3.639120000000000132e+00 9.818929999999999936e+00 9.128470000000000084e+00 9.132319999999999993e+00 3.976039999999999797e+00 9.283530000000000726e+00 8.887470000000000425e+00 9.436070000000000846e+00 4.017299999999999649e+00 1.281479999999999952e+00 9.463599999999999790e-01 4.028069999999999595e+00 1.266089999999999938e+00 6.814390000000000391e+00 3.776879999999999793e+00 7.094389999999999752e+00 8.887500000000000400e-01 3.918309999999999960e+00 6.397450000000000081e+00 6.830510000000000304e+00 1.277970000000000050e+00 1.472069999999999990e+00 4.148139999999999716e+00 1.351259999999999906e+00 1.286010000000000097e+00 9.710430000000000561e+00 1.454490000000000061e+00 6.973690000000000389e+00 4.349029999999999951e+00 1.098929999999999962e+00 6.393849999999999589e+00 9.585910000000000153e+00 6.308419999999999916e+00 1.215889999999999915e+00 9.030699999999999505e+00 6.730229999999999713e+00 1.393389999999999906e+00 4.068489999999999718e+00 6.709419999999999717e+00 6.028059999999999974e+00 8.074299999999999811e-01 6.041299999999999670e+00 7.535409999999999719e+00 6.404849999999999710e+00 6.767890000000000406e+00 9.733899999999999775e-01 1.674609999999999932e+00 6.920580000000000176e+00 9.358400000000000052e-01 6.319679999999999964e+00 6.475270000000000081e+00 6.940549999999999997e+00 3.750220000000000109e+00 6.318299999999999805e+00 6.221269999999999634e+00 8.564450000000000784e+00 6.382480000000000153e+00 3.110939999999999817e+00 1.066200000000000064e-01 7.013090000000000046e+00 4.592839999999999812e+00 5.729400000000000048e+00 6.735999999999999766e+00 9.106759999999999522e+00 1.687100000000000044e+00 4.268060000000000187e+00 9.370620000000000616e+00 7.679719999999999658e+00 9.291460000000000719e+00 1.552680000000000060e+00 3.520010000000000083e+00 9.048980000000000246e+00 1.122570000000000068e+00 9.047510000000000829e+00 9.449419999999999931e+00 6.675950000000000273e+00 4.256170000000000009e+00 8.730349999999999611e+00 5.723370000000000068e+00 9.736459999999999226e+00 6.816309999999999647e+00 3.832050000000000178e+00 3.400770000000000071e+00 7.657029999999999781e+00 3.161340000000000039e+00 7.670829999999999593e+00 6.377430000000000376e+00 9.475170000000000314e+00 4.821790000000000020e+00 6.285960000000000214e+00 8.612450000000000827e+00 1.009773999999999994e+01 1.274780000000000024e+00 1.570330000000000004e+00 1.524589999999999890e+00 1.633680000000000021e+00 1.935939999999999994e+00 6.879909999999999748e+00 1.160279999999999978e+00 6.487429999999999808e+00 1.501910000000000078e+00 1.615350000000000064e+00 6.669369999999999798e+00 7.462040000000000006e+00 1.256259999999999932e+00 4.630819999999999936e+00 3.505809999999999871e+00 1.660719999999999974e+00 3.780980000000000008e+00 9.029489999999999128e+00 1.138409999999999922e+00 9.718819999999999126e+00 3.270960000000000090e+00 1.505100000000000104e+00 9.133829999999999671e+00 8.810389999999999944e+00 1.318729999999999958e+00 3.808269999999999822e+00 1.121159999999999934e+00 2.376479999999999926e+00 4.457230000000000025e+00 6.027120000000000033e+00 2.100550000000000139e+00 9.550850000000000506e+00 7.900000000000000355e-01 1.314980000000000038e+00 9.382020000000000692e+00 6.338350000000000151e+00 3.574460000000000193e+00 4.393130000000000202e+00 1.075995999999999952e+01 4.577740000000000364e+00 3.468220000000000081e+00 5.762620000000000076e+00