1.024091220600000085e+01 0.000000000000000000e+00 0.000000000000000000e+00 2.375738800000000081e-02 1.064782879800000082e+01 0.000000000000000000e+00 2.128998299999999844e-02 2.208504099999999970e-02 1.021155742000000011e+01
1.020910923399999959e+01 0.000000000000000000e+00 0.000000000000000000e+00 -2.364927000000000001e-02 1.061482028700000058e+01 0.000000000000000000e+00 2.120119499999999907e-02 -2.211768100000000015e-02 1.017982947600000010e+01
1.008561746500000034e+01 0.000000000000000000e+00 0.000000000000000000e+00 2.339712700000000020e-02 1.048636351200000050e+01 0.000000000000000000e+00 2.096713799999999975e-02 2.175014000000000114e-02 1.005670781999999974e+01
1.016879890400000086e+01 0.000000000000000000e+00 0.000000000000000000e+00 2.359009600000000137e-02 1.057285011599999969e+01 0.000000000000000000e+00 2.114006599999999902e-02 2.192952499999999832e-02 1.013965082500000037e+01
1.019405743899999983e+01 0.000000000000000000e+00 0.000000000000000000e+00 2.364869199999999894e-02 1.059911228400000027e+01 0.000000000000000000e+00 2.119257600000000116e-02 2.198399700000000165e-02 1.016483695900000050e+01
1.017159010499999994e+01 0.000000000000000000e+00 0.000000000000000000e+00 2.359657100000000021e-02 1.057575222400000037e+01 0.000000000000000000e+00 2.114586800000000169e-02 2.193554500000000074e-02 1.014243402500000002e+01
1.030012493999999990e+01 0.000000000000000000e+00 0.000000000000000000e+00 2.389475300000000121e-02 1.070939431500000083e+01 0.000000000000000000e+00 2.141308100000000048e-02 2.221273699999999976e-02 1.027060042499999959e+01
1.013655629400000002e+01 0.000000000000000000e+00 0.000000000000000000e+00 -2.348120199999999963e-02 1.053938408500000001e+01 0.000000000000000000e+00 2.105052500000000049e-02 -2.196049799999999844e-02 1.010748461700000078e+01
1.013652161000000085e+01 0.000000000000000000e+00 0.000000000000000000e+00 -2.348112100000000063e-02 1.053934802300000051e+01 0.000000000000000000e+00 2.105045300000000022e-02 -2.196042200000000028e-02 1.010745003299999922e+01
1.023684629199999918e+01 0.000000000000000000e+00 0.000000000000000000e+00 2.374795600000000062e-02 1.064360132700000072e+01 0.000000000000000000e+00 2.128152999999999989e-02 2.207627300000000042e-02 1.020750316099999999e+01
1.020737165200000085e+01 0.000000000000000000e+00 0.000000000000000000e+00 2.367957899999999921e-02 1.061295553000000069e+01 0.000000000000000000e+00 2.122025500000000037e-02 2.201270899999999836e-02 1.017811300800000041e+01
1.024989750199999961e+01 0.000000000000000000e+00 0.000000000000000000e+00 2.377823199999999984e-02 1.065717111899999914e+01 0.000000000000000000e+00 2.130866299999999852e-02 2.210441900000000015e-02 1.022051695999999943e+01
1.009639636300000021e+01 0.000000000000000000e+00 0.000000000000000000e+00 -2.338817199999999874e-02 1.049762819400000069e+01 0.000000000000000000e+00 2.096712499999999965e-02 -2.187349200000000132e-02 1.006743986500000076e+01
1.022218984300000066e+01 0.000000000000000000e+00 0.000000000000000000e+00 -2.367957099999999995e-02 1.062842071999999938e+01 0.000000000000000000e+00 2.122836000000000167e-02 -2.214601999999999890e-02 1.019287256900000038e+01
1.020175967199999967e+01 0.000000000000000000e+00 0.000000000000000000e+00 -2.363224400000000017e-02 1.060717865199999999e+01 0.000000000000000000e+00 2.118593300000000054e-02 -2.210175799999999913e-02 1.017250099199999980e+01
1.022133472500000018e+01 0.000000000000000000e+00 0.000000000000000000e+00 2.371197099999999836e-02 1.062747341699999915e+01 0.000000000000000000e+00 2.124928300000000075e-02 2.204282100000000064e-02 1.019203605599999918e+01
1.025028294600000045e+01 0.000000000000000000e+00 0.000000000000000000e+00 -2.374464800000000014e-02 1.065763024700000017e+01 0.000000000000000000e+00 2.128670100000000162e-02 -2.220688200000000070e-02 1.022088510200000044e+01
1.020069135099999968e+01 0.000000000000000000e+00 0.000000000000000000e+00 2.366408100000000000e-02 1.060600979099999996e+01 0.000000000000000000e+00 2.120636700000000027e-02 2.199830300000000030e-02 1.017145185500000082e+01
1.019963794100000065e+01 0.000000000000000000e+00 0.000000000000000000e+00 -2.362732899999999900e-02 1.060497260400000030e+01 0.000000000000000000e+00 2.118152599999999913e-02 -2.209716200000000005e-02 1.017038534699999985e+01
1.022259848999999932e+01 0.000000000000000000e+00 0.000000000000000000e+00 -2.368051700000000162e-02 1.062884560700000058e+01 0.000000000000000000e+00 2.122920799999999941e-02 -2.214690500000000145e-02 1.019328004399999976e+01
1.023456510599999980e+01 0.000000000000000000e+00 0.000000000000000000e+00 2.374266400000000013e-02 1.064122949999999967e+01 0.000000000000000000e+00 2.127678800000000134e-02 2.207135299999999842e-02 1.020522851399999986e+01
1.017885039299999939e+01 0.000000000000000000e+00 0.000000000000000000e+00 -2.357917500000000083e-02 1.058335895599999965e+01 0.000000000000000000e+00 2.113835699999999998e-02 -2.205212599999999828e-02 1.014965741700000024e+01
1.030344948299999963e+01 0.000000000000000000e+00 0.000000000000000000e+00 2.390246500000000121e-02 1.071285095700000056e+01 0.000000000000000000e+00 2.141999299999999828e-02 2.221990600000000107e-02 1.027391543899999959e+01
1.008390305100000006e+01 0.000000000000000000e+00 0.000000000000000000e+00 -2.335923100000000113e-02 1.048463839699999944e+01 0.000000000000000000e+00 2.094118000000000021e-02 -2.184642599999999865e-02 1.005498238400000055e+01
1.010893070999999921e+01 0.000000000000000000e+00 0.000000000000000000e+00 2.345121000000000011e-02 1.051060309500000045e+01 0.000000000000000000e+00 2.101560499999999970e-02 2.180041699999999902e-02 1.007995423899999921e+01
1.015226737499999921e+01 0.000000000000000000e+00 0.000000000000000000e+00 -2.351759600000000172e-02 1.055571952700000082e+01 0.000000000000000000e+00 2.108315200000000084e-02 -2.199453499999999909e-02 1.012315064000000042e+01
1.011768975300000051e+01 0.000000000000000000e+00 0.000000000000000000e+00 -2.343749800000000105e-02 1.051976778599999918e+01 0.000000000000000000e+00 2.101134500000000072e-02 -2.191962399999999866e-02 1.008867218600000015e+01
1.023276511299999925e+01 0.000000000000000000e+00 0.000000000000000000e+00 2.373848799999999856e-02 1.063935798500000018e+01 0.000000000000000000e+00 2.127304600000000032e-02 2.206747200000000117e-02 1.020343367999999984e+01
1.020578399899999944e+01 0.000000000000000000e+00 0.000000000000000000e+00 2.367589599999999836e-02 1.061130479200000032e+01 0.000000000000000000e+00 2.121695399999999967e-02 2.200928599999999943e-02 1.017652990500000065e+01
1.023152079800000003e+01 0.000000000000000000e+00 0.000000000000000000e+00 -2.370118599999999909e-02 1.063812248900000057e+01 0.000000000000000000e+00 2.124773699999999918e-02 -2.216623499999999941e-02 1.020217676400000073e+01
1.023127827899999964e+01 0.000000000000000000e+00 0.000000000000000000e+00 2.373503899999999944e-02 1.063781207199999912e+01 0.000000000000000000e+00 2.126995500000000011e-02 2.206426499999999957e-02 1.020195110799999938e+01
1.016754618200000060e+01 0.000000000000000000e+00 0.000000000000000000e+00 -2.355298899999999987e-02 1.057160551499999990e+01 0.000000000000000000e+00 2.111488200000000148e-02 -2.202763599999999974e-02 1.013838562699999990e+01
1.014938677099999964e+01 0.000000000000000000e+00 0.000000000000000000e+00 -2.351092299999999954e-02 1.055272444699999923e+01 0.000000000000000000e+00 2.107716999999999924e-02 -2.198829399999999851e-02 1.012027829700000048e+01
1.021329519100000027e+01 0.000000000000000000e+00 0.000000000000000000e+00 2.369332000000000035e-02 1.061911443800000043e+01 0.000000000000000000e+00 2.123256999999999922e-02 2.202548400000000142e-02 1.018401956800000008e+01
1.021531717000000050e+01 0.000000000000000000e+00 0.000000000000000000e+00 -2.366365000000000135e-02 1.062127492699999998e+01 0.000000000000000000e+00 2.121408699999999953e-02 -2.213112999999999886e-02 1.018601960700000042e+01
1.009414892700000088e+01 0.000000000000000000e+00 0.000000000000000000e+00 2.341691900000000132e-02 1.049523396700000077e+01 0.000000000000000000e+00 2.098487500000000006e-02 2.176853899999999994e-02 1.006521482700000014e+01
1.027527821400000008e+01 0.000000000000000000e+00 0.000000000000000000e+00 -2.380254899999999924e-02 1.068361882900000026e+01 0.000000000000000000e+00 2.133860799999999849e-02 -2.226103399999999899e-02 1.024580868299999992e+01
1.026306587600000064e+01 0.000000000000000000e+00 0.000000000000000000e+00 -2.377425899999999898e-02 1.067092117199999990e+01 0.000000000000000000e+00 2.131324700000000044e-02 -2.223457599999999895e-02 1.023363136999999945e+01
1.027169069400000012e+01 0.000000000000000000e+00 0.000000000000000000e+00 -2.379423899999999828e-02 1.067988874000000088e+01 0.000000000000000000e+00 2.133115799999999937e-02 -2.225326199999999935e-02 1.024223145200000040e+01
1.025943356099999981e+01 0.000000000000000000e+00 0.000000000000000000e+00 2.380035499999999873e-02 1.066708608799999958e+01 0.000000000000000000e+00 2.132848700000000014e-02 2.212498400000000032e-02 1.023002568499999931e+01
1.015600607300000036e+01 0.000000000000000000e+00 0.000000000000000000e+00 -2.352625699999999834e-02 1.055960680099999927e+01 0.000000000000000000e+00 2.109091600000000122e-02 -2.200263499999999955e-02 1.012687861500000075e+01
1.017617463500000063e+01 0.000000000000000000e+00 0.000000000000000000e+00 -2.357297699999999843e-02 1.058057686299999922e+01 0.000000000000000000e+00 2.113280000000000020e-02 -2.204632899999999993e-02 1.014698933300000050e+01
1.025096772899999920e+01 0.000000000000000000e+00 0.000000000000000000e+00 2.378071500000000088e-02 1.065828387100000008e+01 0.000000000000000000e+00 2.131088800000000005e-02 2.210672699999999963e-02 1.022158411999999927e+01
1.006263775699999918e+01 0.000000000000000000e+00 0.000000000000000000e+00 2.334381799999999882e-02 1.046247071900000059e+01 0.000000000000000000e+00 2.091936599999999827e-02 2.170058399999999846e-02 1.003379398100000053e+01
1.013252271400000026e+01 0.000000000000000000e+00 0.000000000000000000e+00 -2.347185800000000169e-02 1.053519020999999967e+01 0.000000000000000000e+00 2.104214899999999958e-02 -2.195175900000000124e-02 1.010346260600000079e+01
1.018080994399999994e+01 0.000000000000000000e+00 0.000000000000000000e+00 -2.358371500000000162e-02 1.058539638000000060e+01 0.000000000000000000e+00 2.114242599999999889e-02 -2.205637200000000117e-02 1.015161134799999942e+01
1.031229377000000014e+01 0.000000000000000000e+00 0.000000000000000000e+00 2.392298199999999889e-02 1.072204666600000067e+01 0.000000000000000000e+00 2.143837900000000046e-02 2.223897899999999900e-02 1.028273437400000034e+01
1.027574290699999970e+01 0.000000000000000000e+00 0.000000000000000000e+00 -2.380362600000000134e-02 1.068410198900000019e+01 0.000000000000000000e+00 2.133957300000000057e-02 -2.226204099999999977e-02 1.024627204299999939e+01
1.021788005500000018e+01 0.000000000000000000e+00 0.000000000000000000e+00 2.370395700000000119e-02 1.062388147799999949e+01 0.000000000000000000e+00 2.124210099999999934e-02 2.203537100000000151e-02 1.018859128899999966e+01
1.017733646900000011e+01 0.000000000000000000e+00 0.000000000000000000e+00 2.360990199999999858e-02 1.058172691599999915e+01 0.000000000000000000e+00 2.115781400000000048e-02 2.194793700000000070e-02 1.014816391799999984e+01
