1.005786999999999942e+01 2.752749999999999808e+00 2.272289999999999921e+00 1.002820000000000000e+01 2.827700000000000102e+00 7.612390000000000434e+00 4.397000000000000214e-02 7.949749999999999872e+00 2.272749999999999826e+00 7.814999999999999725e-02 8.209379999999999455e+00 7.475520000000000387e+00 5.207209999999999894e+00 2.694510000000000183e+00 2.420850000000000168e+00 5.072180000000000355e+00 2.536169999999999813e+00 7.464260000000000339e+00 5.260559999999999903e+00 8.047349999999999781e+00 2.435119999999999951e+00 5.159189999999999721e+00 7.906119999999999592e+00 7.399510000000000254e+00 2.573259999999999881e+00 4.873459999999999681e+00 2.504710000000000214e+00 2.401029999999999998e+00 4.845769999999999911e+00 7.680839999999999890e+00 2.658650000000000180e+00 1.036063000000000045e+01 2.566149999999999931e+00 2.623120000000000118e+00 1.010722999999999949e+01 7.538249999999999673e+00 7.644899999999999807e+00 5.136219999999999786e+00 2.212940000000000129e+00 7.791360000000000063e+00 4.989589999999999748e+00 7.375429999999999708e+00 7.834369999999999834e+00 1.036293000000000042e+01 2.393940000000000179e+00 7.689470000000000027e+00 1.020312999999999981e+01 7.439700000000000202e+00 2.630590000000000206e+00 2.312240000000000073e+00 5.159209999999999852e+00 2.531460000000000043e+00 2.413170000000000037e+00 8.007999999999999841e-02 2.684569999999999901e+00 7.538750000000000284e+00 5.108660000000000423e+00 2.375760000000000094e+00 7.567219999999999835e+00 8.803999999999999326e-02 7.800500000000000433e+00 2.389800000000000146e+00 4.988030000000000186e+00 7.668140000000000178e+00 2.367420000000000080e+00 1.000000000000000082e-05 7.822829999999999728e+00 7.496789999999999843e+00 5.095100000000000406e+00 7.870459999999999567e+00 7.646250000000000213e+00 1.004679999999999929e+01 1.581500000000000128e-01 5.284010000000000318e+00 5.000820000000000043e+00 1.013615000000000066e+01 5.396600000000000286e+00 1.470200000000000118e-01 1.140199999999999964e-01 5.532000000000000112e-02 5.257920000000000371e+00 1.422299999999999953e-01 7.453999999999999515e-02 1.021108000000000082e+01 5.256789999999999630e+00 5.285680000000000156e+00 4.988690000000000069e+00 5.007579999999999920e+00 5.451329999999999565e+00 1.006028000000000056e+01 5.372060000000000279e+00 1.060112999999999950e+01 5.108649999999999913e+00 5.046429999999999971e+00 4.440000000000000197e-02 1.014367999999999981e+01 4.307789999999999786e+00 4.333899999999999864e+00 3.372650000000000148e+00 4.215709999999999624e+00 4.447199999999999598e+00 8.496029999999999305e+00 4.489959999999999951e+00 9.849489999999999412e+00 3.417489999999999917e+00 4.514450000000000074e+00 9.821669999999999234e+00 8.411699999999999733e+00 9.624470000000000525e+00 4.583750000000000213e+00 3.258890000000000065e+00 9.225789999999999935e+00 4.447720000000000340e+00 8.693730000000000402e+00 9.459970000000000212e+00 9.793939999999999202e+00 3.531940000000000079e+00 9.543960000000000221e+00 9.712989999999999569e+00 8.504229999999999734e+00 3.793930000000000025e+00 1.010850000000000026e+00 1.282750000000000057e+00 4.017719999999999736e+00 8.841299999999999715e-01 6.332220000000000404e+00 3.869330000000000158e+00 6.190279999999999561e+00 1.321939999999999893e+00 3.623790000000000067e+00 6.262470000000000425e+00 6.556569999999999787e+00 8.935340000000000060e+00 1.217419999999999947e+00 1.382970000000000033e+00 9.004839999999999733e+00 1.196890000000000009e+00 6.689650000000000318e+00 4.373730000000000118e+00 1.719419999999999948e+00 4.066950000000000287e+00 4.269459999999999589e+00 1.685489999999999933e+00 9.033810000000000784e+00 4.573229999999999684e+00 7.173930000000000362e+00 4.178790000000000227e+00 4.199349999999999916e+00 7.032860000000000333e+00 8.933590000000000586e+00 9.527950000000000585e+00 1.917519999999999891e+00 4.007170000000000343e+00 9.444399999999999906e+00 1.702630000000000088e+00 9.202659999999999840e+00 9.572829999999999728e+00 6.984469999999999956e+00 3.965599999999999792e+00 9.552699999999999747e+00 7.003379999999999939e+00 9.030390000000000583e+00 3.743790000000000173e+00 3.724209999999999798e+00 9.717500000000000027e-01 3.834859999999999935e+00 3.555410000000000181e+00 6.143709999999999560e+00 3.882870000000000044e+00 9.031180000000000874e+00 8.943900000000000183e-01 3.814630000000000187e+00 8.838910000000000267e+00 6.147160000000000402e+00 8.829800000000000537e+00 3.828720000000000123e+00 9.953800000000000425e-01 9.055749999999999744e+00 3.692029999999999923e+00 5.953890000000000349e+00 9.116400000000000503e+00 8.986309999999999576e+00 1.003759999999999986e+00 9.078089999999999549e+00 8.936840000000000117e+00 6.093880000000000408e+00 1.834039999999999893e+00 6.702799999999999869e-01 3.986439999999999984e+00 1.814720000000000111e+00 3.643600000000000172e-01 9.113970000000000127e+00 1.822079999999999922e+00 5.956889999999999574e+00 3.915490000000000137e+00 1.566599999999999993e+00 5.915470000000000006e+00 9.219620000000000815e+00 6.943480000000000096e+00 6.139700000000000157e-01 4.120479999999999698e+00 7.200510000000000410e+00 3.818400000000000127e-01 9.159979999999999123e+00 6.992750000000000021e+00 5.867040000000000255e+00 4.091319999999999624e+00 6.882340000000000124e+00 5.938369999999999926e+00 9.058460000000000178e+00 1.100060000000000038e+00 3.847409999999999997e+00 1.167059999999999986e+00 1.429310000000000080e+00 3.911350000000000104e+00 6.270559999999999690e+00 1.386139999999999928e+00 9.331780000000000186e+00 1.176209999999999978e+00 1.397890000000000077e+00 9.374290000000000234e+00 6.230940000000000367e+00 6.409119999999999706e+00 4.094470000000000276e+00 7.892200000000000326e-01 6.532680000000000042e+00 4.007100000000000328e+00 6.007220000000000226e+00 6.599059999999999704e+00 9.438459999999999184e+00 9.200199999999999489e-01 6.477769999999999584e+00 9.015750000000000597e+00 6.134669999999999845e+00 1.844910000000000050e+00 3.180890000000000217e+00 3.435719999999999885e+00 1.539870000000000072e+00 3.328170000000000073e+00 8.736900000000000333e+00 2.082990000000000119e+00 8.436619999999999564e+00 3.346969999999999779e+00 1.778899999999999926e+00 8.533110000000000639e+00 8.748300000000000409e+00 6.888799999999999812e+00 3.346490000000000187e+00 3.291290000000000049e+00 6.923390000000000377e+00 3.225760000000000183e+00 8.400050000000000239e+00 7.032740000000000435e+00 8.622989999999999711e+00 3.335059999999999913e+00 7.172679999999999723e+00 8.552410000000000068e+00 8.549459999999999837e+00 1.151780000000000026e+00 1.403350000000000097e+00 1.212630000000000097e+00 1.317809999999999926e+00 1.367620000000000058e+00 6.469490000000000407e+00 1.163429999999999964e+00 6.494229999999999947e+00 1.416109999999999980e+00 1.047660000000000036e+00 6.855719999999999814e+00 6.275879999999999903e+00 6.296149999999999913e+00 1.422849999999999948e+00 1.245270000000000099e+00 6.562739999999999796e+00 1.136379999999999946e+00 6.408109999999999751e+00 6.500919999999999810e+00 6.768299999999999983e+00 1.276410000000000045e+00 6.403590000000000337e+00 6.424699999999999633e+00 6.437599999999999767e+00
1.641299999999999981e-01 2.759450000000000180e+00 2.379560000000000120e+00 1.016446999999999967e+01 2.615110000000000046e+00 7.462299999999999933e+00 1.008727000000000018e+01 8.011269999999999669e+00 2.464319999999999844e+00 1.013496999999999915e+01 7.949900000000000411e+00 7.332980000000000054e+00 4.979930000000000412e+00 2.709799999999999986e+00 2.375070000000000014e+00 5.161319999999999908e+00 2.671650000000000080e+00 7.511180000000000412e+00 5.042279999999999873e+00 7.935349999999999682e+00 2.323519999999999808e+00 5.176490000000000258e+00 7.970900000000000318e+00 7.626450000000000173e+00 2.561409999999999965e+00 5.050830000000000375e+00 2.391030000000000211e+00 2.547610000000000152e+00 4.858869999999999578e+00 7.488360000000000127e+00 2.532280000000000086e+00 1.012570999999999977e+01 2.205130000000000035e+00 2.638430000000000053e+00 1.027370999999999945e+01 7.302080000000000126e+00 7.547640000000000349e+00 5.065430000000000099e+00 2.408119999999999816e+00 7.670919999999999739e+00 4.923650000000000304e+00 7.659259999999999735e+00 7.649429999999999730e+00 1.023671000000000042e+01 2.404479999999999951e+00 7.907070000000000043e+00 1.032030999999999921e+01 7.425959999999999894e+00 2.695149999999999935e+00 2.233999999999999986e+00 5.009929999999999772e+00 2.622879999999999878e+00 2.091390000000000082e+00 1.008723999999999954e+01 2.598520000000000163e+00 7.589669999999999916e+00 5.014850000000000030e+00 2.499550000000000161e+00 7.576730000000000409e+00 1.003956999999999944e+01 7.705110000000000348e+00 2.374350000000000183e+00 4.988719999999999821e+00 7.805209999999999759e+00 2.125500000000000167e+00 7.968999999999999695e-02 7.461009999999999920e+00 7.631199999999999761e+00 5.303729999999999833e+00 7.667889999999999873e+00 7.606779999999999653e+00 1.013474000000000075e+01 1.014166999999999952e+01 5.319869999999999877e+00 5.099300000000000388e+00 1.011237000000000030e+01 5.365840000000000387e+00 2.194000000000000117e-02 1.076700000000000018e-01 1.909999999999999892e-02 4.919200000000000017e+00 1.005117000000000083e+01 1.045941000000000010e+01 9.150999999999999412e-02 5.083429999999999893e+00 5.327530000000000321e+00 5.200260000000000105e+00 4.921540000000000248e+00 5.269650000000000389e+00 1.014494000000000007e+01 5.232940000000000147e+00 1.614700000000000024e-01 5.049699999999999633e+00 5.178519999999999790e+00 -1.952999999999999875e-02 1.007094000000000023e+01 4.357450000000000045e+00 4.402300000000000324e+00 3.559940000000000104e+00 4.327810000000000379e+00 4.339249999999999829e+00 8.524649999999999395e+00 4.911970000000000169e+00 9.670970000000000510e+00 3.260829999999999895e+00 4.524070000000000036e+00 9.829879999999999285e+00 8.262209999999999610e+00 9.374610000000000554e+00 4.302999999999999936e+00 3.283399999999999874e+00 9.508169999999999789e+00 4.264370000000000438e+00 8.590960000000000818e+00 9.491339999999999222e+00 9.662209999999999965e+00 3.243250000000000188e+00 9.611969999999999459e+00 9.712360000000000326e+00 8.377520000000000522e+00 3.765010000000000190e+00 1.074850000000000083e+00 1.631520000000000081e+00 3.962579999999999991e+00 9.838599999999999568e-01 6.546549999999999869e+00 3.786059999999999981e+00 6.369080000000000297e+00 1.310689999999999911e+00 3.914280000000000204e+00 6.267719999999999736e+00 6.424870000000000303e+00 8.943669999999999121e+00 8.937199999999999589e-01 1.382020000000000026e+00 9.083560000000000301e+00 1.117159999999999931e+00 6.542819999999999858e+00 8.781019999999999825e+00 6.471610000000000085e+00 1.603520000000000056e+00 8.785669999999999646e+00 6.351110000000000255e+00 6.631280000000000285e+00 4.430150000000000254e+00 1.768250000000000099e+00 4.200619999999999798e+00 4.722489999999999633e+00 1.729449999999999932e+00 9.296480000000000743e+00 4.404939999999999856e+00 7.088759999999999728e+00 4.127500000000000391e+00 4.248809999999999754e+00 7.050769999999999982e+00 9.036170000000000258e+00 9.517469999999999430e+00 1.744969999999999910e+00 4.185360000000000191e+00 9.875709999999999766e+00 1.654730000000000034e+00 9.310060000000000002e+00 9.318920000000000314e+00 7.056610000000000049e+00 4.216560000000000308e+00 9.350580000000000780e+00 6.813760000000000261e+00 9.128470000000000084e+00 3.848110000000000142e+00 3.785610000000000142e+00 9.966800000000000104e-01 3.853400000000000158e+00 3.605799999999999894e+00 6.173119999999999941e+00 3.626500000000000057e+00 9.031900000000000261e+00 8.669099999999999584e-01 3.801620000000000221e+00 9.014290000000000802e+00 5.844070000000000320e+00 9.053599999999999426e+00 3.702690000000000037e+00 9.713000000000000522e-01 9.079119999999999635e+00 3.663110000000000088e+00 6.073979999999999713e+00 8.925610000000000710e+00 8.894299999999999429e+00 9.666700000000000292e-01 8.841409999999999769e+00 9.008459999999999468e+00 6.107759999999999856e+00 1.966579999999999995e+00 4.200699999999999990e-01 4.001360000000000028e+00 2.151229999999999976e+00 5.340700000000000447e-01 9.034979999999999123e+00 1.763479999999999936e+00 5.847380000000000244e+00 4.092380000000000351e+00 1.765239999999999920e+00 5.662040000000000184e+00 9.221429999999999794e+00 7.212920000000000442e+00 5.669600000000000195e-01 4.112919999999999909e+00 7.147540000000000227e+00 3.521900000000000031e-01 9.237249999999999517e+00 6.804009999999999891e+00 5.881859999999999644e+00 4.308460000000000178e+00 6.828289999999999971e+00 5.751960000000000406e+00 9.229200000000000514e+00 1.260490000000000110e+00 3.954410000000000203e+00 1.284589999999999899e+00 1.288850000000000051e+00 4.058670000000000222e+00 6.152040000000000397e+00 1.334470000000000045e+00 9.280900000000000816e+00 8.363800000000000123e-01 1.125350000000000072e+00 9.279909999999999215e+00 6.037550000000000416e+00 6.338110000000000355e+00 4.111360000000000348e+00 1.231279999999999930e+00 6.227409999999999890e+00 3.929009999999999891e+00 6.368979999999999642e+00 6.421439999999999593e+00 8.923420000000000130e+00 9.307400000000000118e-01 6.373840000000000394e+00 9.129849999999999355e+00 6.193620000000000125e+00 1.878260000000000041e+00 3.223139999999999894e+00 3.475769999999999804e+00 1.936979999999999924e+00 3.176699999999999857e+00 8.496570000000000178e+00 1.874339999999999895e+00 8.402649999999999508e+00 3.246309999999999807e+00 1.871499999999999941e+00 8.467259999999999565e+00 8.324669999999999348e+00 6.695979999999999599e+00 3.268530000000000157e+00 3.455859999999999932e+00 6.964240000000000208e+00 2.827409999999999979e+00 8.460950000000000415e+00 7.198000000000000398e+00 8.303499999999999659e+00 3.342270000000000074e+00 7.035840000000000316e+00 8.323840000000000572e+00 8.371560000000000556e+00 1.179179999999999895e+00 1.179210000000000091e+00 1.296349999999999891e+00 1.482790000000000052e+00 1.119969999999999910e+00 6.321509999999999962e+00 1.038869999999999960e+00 6.638829999999999565e+00 1.281409999999999938e+00 1.253130000000000077e+00 6.691329999999999778e+00 6.414609999999999701e+00 6.324939999999999785e+00 1.121450000000000058e+00 1.320969999999999978e+00 6.617589999999999861e+00 1.138430000000000053e+00 6.476600000000000357e+00
5.668000000000000121e-02 2.564249999999999918e+00 2.359879999999999978e+00 1.010191000000000017e+01 2.679129999999999789e+00 7.249010000000000176e+00 6.486999999999999711e-02 8.099569999999999936e+00 2.486270000000000202e+00 3.692999999999999755e-02 7.807349999999999568e+00 7.254080000000000084e+00 4.948809999999999931e+00 2.652289999999999814e+00 2.341829999999999856e+00 5.025100000000000122e+00 2.618749999999999911e+00 7.405079999999999885e+00 5.173210000000000086e+00 7.824029999999999596e+00 2.431400000000000006e+00 4.989189999999999792e+00 7.969229999999999592e+00 7.325960000000000250e+00 2.522170000000000023e+00 4.920600000000000307e+00 2.403239999999999821e+00 2.490940000000000154e+00 4.722870000000000346e+00 7.345519999999999605e+00 2.699800000000000200e+00 1.019350000000000023e+01 2.257730000000000015e+00 2.567750000000000199e+00 1.014669999999999916e+01 7.323039999999999772e+00 7.562700000000000422e+00 4.976309999999999789e+00 2.261800000000000033e+00 7.573920000000000208e+00 4.949779999999999625e+00 7.368439999999999657e+00 7.550799999999999734e+00 1.016210000000000058e+01 2.417959999999999887e+00 7.513410000000000366e+00 1.017539999999999978e+01 7.380080000000000418e+00 2.500890000000000057e+00 2.215720000000000134e+00 5.036089999999999733e+00 2.559989999999999988e+00 2.186570000000000125e+00 1.002246000000000059e+01 2.653439999999999799e+00 7.468140000000000001e+00 4.965090000000000003e+00 2.440259999999999874e+00 7.471189999999999998e+00 1.000178999999999974e+01 7.572540000000000049e+00 2.291040000000000187e+00 4.975609999999999644e+00 7.785890000000000200e+00 2.438060000000000116e+00 1.002466000000000079e+01 7.542769999999999975e+00 7.474549999999999805e+00 5.137550000000000061e+00 7.681639999999999802e+00 7.593650000000000233e+00 1.003386000000000067e+01 1.009230999999999945e+01 5.247110000000000163e+00 4.953240000000000087e+00 6.988999999999999380e-02 5.201789999999999914e+00 1.004585999999999935e+01 1.607000000000000095e-02 1.104699999999999988e-01 5.159449999999999648e+00 2.164999999999999911e-02 3.198999999999999760e-02 9.976290000000000546e+00 5.088239999999999874e+00 5.212399999999999700e+00 5.113410000000000011e+00 5.067359999999999864e+00 5.229339999999999655e+00 1.004865999999999993e+01 5.117549999999999599e+00 1.544000000000000060e-02 5.048799999999999955e+00 5.135989999999999611e+00 1.042375000000000007e+01 6.144999999999999768e-02 4.429710000000000036e+00 4.437969999999999970e+00 3.248240000000000016e+00 4.302620000000000111e+00 4.315050000000000274e+00 8.481350000000000833e+00 4.575319999999999609e+00 9.651099999999999568e+00 3.277699999999999836e+00 4.339690000000000047e+00 9.712749999999999773e+00 8.374950000000000117e+00 9.469580000000000553e+00 4.404410000000000380e+00 3.211300000000000043e+00 9.343090000000000117e+00 4.475069999999999659e+00 8.258729999999999905e+00 9.404310000000000613e+00 9.927609999999999602e+00 3.192110000000000003e+00 9.496029999999999305e+00 9.662660000000000693e+00 8.279709999999999681e+00 3.830719999999999903e+00 1.101890000000000036e+00 1.335709999999999953e+00 3.897539999999999782e+00 9.650600000000000289e-01 6.420650000000000190e+00 3.880879999999999885e+00 6.310109999999999886e+00 1.429559999999999942e+00 3.715209999999999901e+00 6.229110000000000369e+00 6.358139999999999681e+00 8.819739999999999469e+00 1.151639999999999997e+00 1.284529999999999950e+00 8.767039999999999722e+00 1.213119999999999976e+00 6.490450000000000053e+00 4.398240000000000371e+00 1.680069999999999952e+00 4.108859999999999957e+00 4.403690000000000104e+00 1.685810000000000031e+00 9.057449999999999335e+00 4.539799999999999613e+00 7.223150000000000404e+00 4.273060000000000080e+00 4.436639999999999695e+00 7.080490000000000173e+00 9.111560000000000770e+00 9.493059999999999832e+00 1.877939999999999943e+00 4.051140000000000185e+00 9.502370000000000871e+00 1.900320000000000009e+00 9.132780000000000342e+00 9.364679999999999893e+00 7.020419999999999661e+00 4.094079999999999941e+00 9.356260000000000687e+00 6.968939999999999912e+00 8.908730000000000260e+00 3.755230000000000068e+00 3.602090000000000014e+00 8.897100000000000009e-01 3.712530000000000108e+00 3.627060000000000173e+00 6.064370000000000260e+00 3.760720000000000063e+00 8.930440000000000822e+00 8.680799999999999628e-01 3.732060000000000155e+00 9.047390000000000043e+00 5.918999999999999595e+00 8.856780000000000541e+00 3.724289999999999878e+00 9.135699999999999932e-01 8.796929999999999694e+00 3.793429999999999858e+00 5.926739999999999675e+00 8.849539999999999296e+00 8.853429999999999467e+00 1.063020000000000076e+00 8.689590000000000813e+00 8.983249999999999957e+00 6.034720000000000084e+00 1.850689999999999946e+00 4.951499999999999790e-01 4.020669999999999966e+00 1.768780000000000019e+00 5.454099999999999504e-01 9.061579999999999302e+00 1.871559999999999890e+00 5.782320000000000348e+00 4.042629999999999946e+00 1.819679999999999964e+00 5.852299999999999613e+00 8.906140000000000612e+00 7.071480000000000210e+00 6.998999999999999666e-01 3.897130000000000205e+00 6.866270000000000095e+00 5.591899999999999649e-01 9.090859999999999275e+00 6.719009999999999927e+00 5.675720000000000098e+00 3.997970000000000024e+00 6.833319999999999617e+00 5.738150000000000084e+00 9.051159999999999428e+00 1.224690000000000056e+00 3.813509999999999955e+00 8.955800000000000427e-01 1.216949999999999976e+00 3.776460000000000150e+00 5.955969999999999764e+00 1.329779999999999962e+00 9.135659999999999670e+00 9.636200000000000321e-01 1.105890000000000040e+00 9.085419999999999163e+00 5.971180000000000376e+00 6.182669999999999888e+00 3.811760000000000037e+00 9.561399999999999899e-01 6.303309999999999746e+00 3.786560000000000148e+00 5.910330000000000084e+00 6.300110000000000099e+00 9.123340000000000671e+00 1.208010000000000028e+00 6.332259999999999778e+00 9.024430000000000618e+00 6.024200000000000443e+00 1.843140000000000001e+00 3.067769999999999886e+00 3.272959999999999869e+00 1.743959999999999955e+00 3.069620000000000015e+00 8.385329999999999728e+00 2.029380000000000184e+00 8.294280000000000541e+00 3.221229999999999816e+00 1.881340000000000012e+00 8.437680000000000291e+00 8.420820000000000860e+00 6.922209999999999752e+00 3.085989999999999789e+00 3.158129999999999882e+00 6.852389999999999759e+00 3.252740000000000187e+00 8.282069999999999155e+00 6.974750000000000227e+00 8.361520000000000508e+00 3.494000000000000217e+00 6.843939999999999912e+00 8.549400000000000333e+00 8.452830000000000510e+00 1.348700000000000010e+00 1.151569999999999983e+00 1.415920000000000067e+00 1.242510000000000003e+00 1.273279999999999967e+00 6.483939999999999593e+00 1.148409999999999931e+00 6.419229999999999769e+00 1.403440000000000021e+00 1.345040000000000013e+00 6.515670000000000073e+00 6.324569999999999581e+00 6.391910000000000203e+00 1.162600000000000078e+00 1.399680000000000035e+00 6.283249999999999780e+00 1.105890000000000040e+00 6.271289999999999587e+00 6.453680000000000305e+00 6.559459999999999624e+00 1.398470000000000102e+00 6.251929999999999765e+00 6.426239999999999952e+00 6.463549999999999685e+00
1.010989999999999966e+01 2.556529999999999969e+00 2.437959999999999905e+00 1.015140000000000065e+01 2.757490000000000219e+00 7.429059999999999775e+00 3.676000000000000101e-02 7.915639999999999787e+00 2.431519999999999904e+00 1.032000000000000001e-01 7.834749999999999659e+00 7.593099999999999739e+00 5.085810000000000386e+00 2.610110000000000152e+00 2.430499999999999883e+00 5.108780000000000321e+00 2.636899999999999800e+00 7.246120000000000339e+00 5.127950000000000230e+00 7.939510000000000289e+00 2.422079999999999789e+00 5.148939999999999628e+00 8.049839999999999662e+00 7.387430000000000163e+00 2.591359999999999886e+00 4.968200000000000394e+00 2.361190000000000122e+00 2.704190000000000094e+00 4.876249999999999751e+00 7.622519999999999740e+00 2.541180000000000216e+00 1.014753999999999934e+01 2.347710000000000186e+00 2.586289999999999978e+00 1.030673999999999957e+01 7.292919999999999625e+00 7.648850000000000371e+00 5.122279999999999944e+00 2.445829999999999949e+00 7.598849999999999660e+00 5.012199999999999989e+00 7.264450000000000074e+00 7.675279999999999880e+00 1.011093999999999937e+01 2.412599999999999856e+00 7.767610000000000348e+00 1.020823999999999998e+01 7.584959999999999702e+00 2.475830000000000197e+00 2.364860000000000184e+00 4.926440000000000374e+00 2.590559999999999974e+00 2.236889999999999823e+00 3.899999999999999994e-02 2.521419999999999995e+00 7.666479999999999961e+00 5.012229999999999741e+00 2.736270000000000202e+00 7.569040000000000212e+00 9.936510000000000176e+00 7.717399999999999594e+00 2.290259999999999962e+00 4.972360000000000113e+00 7.748099999999999987e+00 2.329520000000000035e+00 1.002045999999999992e+01 7.801720000000000432e+00 7.546960000000000335e+00 5.047719999999999985e+00 7.698699999999999655e+00 7.645959999999999646e+00 8.268000000000000349e-02 6.244000000000000244e-02 5.194230000000000125e+00 5.002110000000000056e+00 2.466000000000000136e-02 5.214669999999999916e+00 8.160000000000000586e-02 1.014349999999999952e+01 1.054843999999999937e+01 5.159740000000000215e+00 1.013599999999999923e+01 7.728999999999999759e-02 1.092400000000000038e-01 4.875630000000000130e+00 5.403089999999999726e+00 4.921590000000000131e+00 5.190279999999999561e+00 5.255150000000000432e+00 1.000730000000000075e+01 5.124259999999999593e+00 1.056025999999999954e+01 5.054929999999999701e+00 5.096180000000000376e+00 2.691999999999999948e-02 1.011453999999999986e+01 4.320100000000000051e+00 4.343650000000000233e+00 3.353349999999999831e+00 4.410759999999999792e+00 4.364639999999999631e+00 8.412319999999999354e+00 4.173809999999999576e+00 9.538629999999999498e+00 3.497240000000000126e+00 4.397730000000000139e+00 9.813299999999999912e+00 8.412879999999999470e+00 9.455090000000000217e+00 4.308209999999999873e+00 3.254570000000000185e+00 9.460419999999999163e+00 4.428449999999999775e+00 8.398250000000000881e+00 9.235709999999999198e+00 9.627700000000000813e+00 3.723660000000000192e+00 9.641809999999999548e+00 9.820140000000000313e+00 8.477009999999999934e+00 3.862769999999999815e+00 1.005600000000000049e+00 1.452520000000000033e+00 3.680229999999999890e+00 1.307819999999999983e+00 6.378199999999999648e+00 3.785460000000000047e+00 6.327460000000000306e+00 1.300289999999999946e+00 3.679949999999999832e+00 6.527319999999999567e+00 6.406430000000000291e+00 8.774919999999999831e+00 8.611799999999999455e-01 1.280159999999999965e+00 8.788270000000000692e+00 8.638700000000000268e-01 6.275150000000000006e+00 4.327499999999999680e+00 1.710269999999999957e+00 3.995800000000000018e+00 4.392940000000000289e+00 1.775800000000000045e+00 9.131159999999999499e+00 4.334030000000000271e+00 7.192319999999999602e+00 4.107409999999999783e+00 4.432380000000000209e+00 7.124690000000000190e+00 9.126630000000000464e+00 9.361029999999999518e+00 1.735800000000000010e+00 4.081629999999999647e+00 9.373559999999999448e+00 1.664879999999999916e+00 8.976390000000000313e+00 9.599059999999999704e+00 6.968989999999999796e+00 3.931449999999999889e+00 9.505789999999999296e+00 7.048939999999999984e+00 9.303890000000000882e+00 3.793530000000000069e+00 3.632969999999999811e+00 9.797200000000000353e-01 3.600999999999999979e+00 3.987249999999999961e+00 5.893469999999999764e+00 3.728330000000000144e+00 9.039680000000000604e+00 9.719700000000000006e-01 3.858499999999999819e+00 9.058980000000000032e+00 6.125110000000000277e+00 8.895450000000000301e+00 3.625459999999999905e+00 8.854600000000000248e-01 8.905459999999999710e+00 3.688429999999999875e+00 5.985050000000000203e+00 8.979929999999999524e+00 8.864509999999999224e+00 9.340600000000000014e-01 8.859299999999999287e+00 8.892030000000000101e+00 6.318520000000000358e+00 1.650390000000000024e+00 3.942999999999999838e-01 4.054380000000000095e+00 1.836079999999999934e+00 5.095600000000000129e-01 9.266629999999999256e+00 1.929489999999999927e+00 5.746669999999999945e+00 4.238109999999999822e+00 1.836440000000000072e+00 5.923289999999999722e+00 9.052530000000000854e+00 6.811709999999999710e+00 4.966800000000000104e-01 3.984319999999999862e+00 6.871760000000000090e+00 4.470700000000000229e-01 9.281560000000000699e+00 7.215410000000000323e+00 5.965209999999999901e+00 4.100640000000000285e+00 6.933250000000000135e+00 6.047220000000000262e+00 9.142720000000000624e+00 1.194660000000000055e+00 3.705830000000000179e+00 1.113320000000000087e+00 1.333420000000000050e+00 3.758379999999999832e+00 6.219699999999999562e+00 1.257200000000000095e+00 9.192190000000000083e+00 9.681899999999999951e-01 1.241810000000000080e+00 9.172409999999999286e+00 6.031290000000000262e+00 6.389820000000000277e+00 3.988259999999999916e+00 1.135620000000000074e+00 6.102789999999999715e+00 3.993850000000000122e+00 5.912889999999999979e+00 6.433699999999999974e+00 9.236169999999999547e+00 1.101150000000000073e+00 6.348019999999999996e+00 9.569589999999999819e+00 6.311090000000000089e+00 1.692919999999999980e+00 3.194999999999999840e+00 3.395560000000000134e+00 1.707950000000000079e+00 3.071499999999999897e+00 8.477249999999999730e+00 1.929450000000000109e+00 8.202070000000000860e+00 3.252590000000000092e+00 2.074959999999999916e+00 8.558460000000000178e+00 8.353600000000000136e+00 6.932380000000000209e+00 3.356500000000000039e+00 3.424360000000000070e+00 6.988030000000000186e+00 3.455400000000000027e+00 8.419359999999999289e+00 6.643099999999999561e+00 8.446540000000000603e+00 3.653529999999999944e+00 6.744970000000000354e+00 8.597759999999999181e+00 8.559490000000000265e+00 1.304999999999999938e+00 1.307120000000000060e+00 1.478329999999999922e+00 1.363429999999999920e+00 1.205219999999999958e+00 6.353710000000000413e+00 1.158879999999999910e+00 6.373980000000000423e+00 1.294810000000000016e+00 1.252040000000000042e+00 6.690409999999999968e+00 6.516189999999999927e+00 6.460919999999999774e+00 1.348929999999999962e+00 1.467740000000000045e+00 6.335939999999999905e+00 1.502899999999999903e+00 6.397960000000000313e+00 6.209410000000000096e+00 6.748020000000000351e+00 1.355720000000000036e+00 6.537099999999999689e+00 6.690970000000000084e+00 6.394790000000000418e+00