1.058486509699999978e+01 0.000000000000000000e+00 0.000000000000000000e+00 -2.451970300000000033e-02 1.100550872600000041e+01 0.000000000000000000e+00 2.198152499999999829e-02 -2.293174300000000096e-02 1.055450766899999948e+01
1.018409767099999996e+01 0.000000000000000000e+00 0.000000000000000000e+00 -2.359133100000000011e-02 1.058881476100000008e+01 0.000000000000000000e+00 2.114925399999999928e-02 -2.206349399999999947e-02 1.015488964500000080e+01
1.055270819899999957e+01 0.000000000000000000e+00 0.000000000000000000e+00 -2.444521200000000088e-02 1.097207391000000065e+01 0.000000000000000000e+00 2.191474499999999936e-02 -2.286207599999999854e-02 1.052244299800000071e+01
1.049373317699999930e+01 0.000000000000000000e+00 0.000000000000000000e+00 -2.430859700000000123e-02 1.091075521399999992e+01 0.000000000000000000e+00 2.179227200000000142e-02 -2.273430900000000116e-02 1.046363711599999924e+01
1.038115623999999926e+01 0.000000000000000000e+00 0.000000000000000000e+00 2.408273299999999853e-02 1.079364534499999984e+01 0.000000000000000000e+00 2.158153800000000080e-02 2.238748499999999864e-02 1.035139945499999925e+01
1.026729606500000003e+01 0.000000000000000000e+00 0.000000000000000000e+00 2.381859399999999849e-02 1.067526100399999933e+01 0.000000000000000000e+00 2.134483300000000056e-02 2.214193899999999937e-02 1.023786565199999998e+01
1.040320006800000030e+01 0.000000000000000000e+00 0.000000000000000000e+00 -2.409887900000000013e-02 1.081662431099999999e+01 0.000000000000000000e+00 2.160426299999999855e-02 -2.253817199999999868e-02 1.037336365700000052e+01
1.040071981500000042e+01 0.000000000000000000e+00 0.000000000000000000e+00 -2.409313299999999922e-02 1.081404549199999998e+01 0.000000000000000000e+00 2.159911200000000017e-02 -2.253279899999999919e-02 1.037089051699999942e+01
1.053743383099999953e+01 0.000000000000000000e+00 0.000000000000000000e+00 2.444527399999999948e-02 1.095613253399999998e+01 0.000000000000000000e+00 2.190642599999999968e-02 2.272450499999999901e-02 1.050722908900000085e+01
1.049149421699999962e+01 0.000000000000000000e+00 0.000000000000000000e+00 -2.430341100000000046e-02 1.090842727799999956e+01 0.000000000000000000e+00 2.178762299999999902e-02 -2.272945800000000099e-02 1.046140457799999979e+01
1.050872133899999916e+01 0.000000000000000000e+00 0.000000000000000000e+00 -2.434331699999999973e-02 1.092633900699999927e+01 0.000000000000000000e+00 2.182339800000000080e-02 -2.276678000000000035e-02 1.047858229200000046e+01
1.033233404599999972e+01 0.000000000000000000e+00 0.000000000000000000e+00 -2.393471800000000066e-02 1.074294206499999937e+01 0.000000000000000000e+00 2.145709599999999842e-02 -2.238464299999999921e-02 1.030270087799999956e+01
1.032036444699999933e+01 0.000000000000000000e+00 0.000000000000000000e+00 -2.390699099999999896e-02 1.073049679300000037e+01 0.000000000000000000e+00 2.143223799999999929e-02 -2.235871199999999934e-02 1.029076560799999918e+01
1.050017086899999974e+01 0.000000000000000000e+00 0.000000000000000000e+00 -2.432350999999999958e-02 1.091744874099999940e+01 0.000000000000000000e+00 2.180564100000000061e-02 -2.274825600000000142e-02 1.047005634499999971e+01
1.039939384300000036e+01 0.000000000000000000e+00 0.000000000000000000e+00 2.412504199999999932e-02 1.081260760900000051e+01 0.000000000000000000e+00 2.161945300000000028e-02 2.242681499999999925e-02 1.036958478200000044e+01
1.065027509799999983e+01 0.000000000000000000e+00 0.000000000000000000e+00 -2.467122500000000149e-02 1.107351812699999982e+01 0.000000000000000000e+00 2.211736200000000152e-02 -2.307345200000000124e-02 1.061973007399999958e+01
1.053096590300000024e+01 0.000000000000000000e+00 0.000000000000000000e+00 2.443026900000000098e-02 1.094940760699999949e+01 0.000000000000000000e+00 2.189297999999999939e-02 2.271055699999999927e-02 1.050077970000000072e+01
1.047145524599999966e+01 0.000000000000000000e+00 0.000000000000000000e+00 2.429221300000000000e-02 1.088753233000000087e+01 0.000000000000000000e+00 2.176926200000000103e-02 2.258221900000000060e-02 1.044143962699999939e+01
1.028811223900000016e+01 0.000000000000000000e+00 0.000000000000000000e+00 -2.383227900000000135e-02 1.069696287900000087e+01 0.000000000000000000e+00 2.136526000000000050e-02 -2.228883799999999832e-02 1.025860589999999917e+01
1.029841851900000016e+01 0.000000000000000000e+00 0.000000000000000000e+00 -2.385615300000000147e-02 1.070767873099999967e+01 0.000000000000000000e+00 2.138666300000000020e-02 -2.231116600000000033e-02 1.026888262099999949e+01
1.053289259299999969e+01 0.000000000000000000e+00 0.000000000000000000e+00 -2.439931000000000044e-02 1.095147082999999988e+01 0.000000000000000000e+00 2.187359399999999968e-02 -2.281914599999999849e-02 1.050268422299999926e+01
1.026927422600000028e+01 0.000000000000000000e+00 0.000000000000000000e+00 -2.378864099999999926e-02 1.067737624099999927e+01 0.000000000000000000e+00 2.132614000000000037e-02 -2.224802600000000061e-02 1.023982191400000019e+01
1.045917792200000029e+01 0.000000000000000000e+00 0.000000000000000000e+00 -2.422855100000000095e-02 1.087482673000000055e+01 0.000000000000000000e+00 2.172051100000000137e-02 -2.265944599999999975e-02 1.042918096500000047e+01
1.051942290999999940e+01 0.000000000000000000e+00 0.000000000000000000e+00 -2.436810699999999996e-02 1.093746585999999965e+01 0.000000000000000000e+00 2.184562199999999857e-02 -2.278996499999999883e-02 1.048925317099999965e+01
1.064289308699999914e+01 0.000000000000000000e+00 0.000000000000000000e+00 2.468992299999999904e-02 1.106578215200000059e+01 0.000000000000000000e+00 2.212566700000000164e-02 2.295193300000000075e-02 1.061238605399999990e+01
1.067855565200000001e+01 0.000000000000000000e+00 0.000000000000000000e+00 -2.473673599999999875e-02 1.110292255399999917e+01 0.000000000000000000e+00 2.217609200000000141e-02 -2.313472000000000098e-02 1.064792951999999993e+01
1.056572831599999951e+01 0.000000000000000000e+00 0.000000000000000000e+00 -2.447537300000000166e-02 1.098561144800000022e+01 0.000000000000000000e+00 2.194178399999999890e-02 -2.289028400000000033e-02 1.053542577300000005e+01
1.040718391100000062e+01 0.000000000000000000e+00 0.000000000000000000e+00 2.414311300000000077e-02 1.082070721100000021e+01 0.000000000000000000e+00 2.163564800000000038e-02 2.244361500000000009e-02 1.037735252100000061e+01
1.027705622200000057e+01 0.000000000000000000e+00 0.000000000000000000e+00 -2.380666799999999958e-02 1.068546749499999926e+01 0.000000000000000000e+00 2.134230000000000155e-02 -2.226488600000000109e-02 1.024758159099999943e+01
1.053083597700000063e+01 0.000000000000000000e+00 0.000000000000000000e+00 2.442996799999999982e-02 1.094927251900000087e+01 0.000000000000000000e+00 2.189270999999999925e-02 2.271027600000000146e-02 1.050065014699999999e+01
1.053718322099999938e+01 0.000000000000000000e+00 0.000000000000000000e+00 2.444469200000000050e-02 1.095587196700000021e+01 0.000000000000000000e+00 2.190590499999999982e-02 2.272396499999999875e-02 1.050697919799999980e+01
1.043724383300000014e+01 0.000000000000000000e+00 0.000000000000000000e+00 -2.417773999999999965e-02 1.085202097800000054e+01 0.000000000000000000e+00 2.167496099999999953e-02 -2.261192700000000042e-02 1.040730978400000062e+01
1.039321601800000039e+01 0.000000000000000000e+00 0.000000000000000000e+00 2.411071000000000047e-02 1.080618431199999918e+01 0.000000000000000000e+00 2.160660999999999832e-02 2.241349200000000014e-02 1.036342466500000015e+01
1.044159682299999936e+01 0.000000000000000000e+00 0.000000000000000000e+00 -2.418782400000000013e-02 1.085654695700000083e+01 0.000000000000000000e+00 2.168400100000000136e-02 -2.262135700000000166e-02 1.041165029000000075e+01
1.038156485000000018e+01 0.000000000000000000e+00 0.000000000000000000e+00 2.408368099999999914e-02 1.079407019199999951e+01 0.000000000000000000e+00 2.158238800000000096e-02 2.238836599999999982e-02 1.035180689499999929e+01
1.050089295999999983e+01 0.000000000000000000e+00 0.000000000000000000e+00 -2.432518300000000022e-02 1.091819952800000060e+01 0.000000000000000000e+00 2.180714099999999864e-02 -2.274982000000000046e-02 1.047077636500000075e+01
1.037798555900000075e+01 0.000000000000000000e+00 0.000000000000000000e+00 -2.404046899999999834e-02 1.079040777400000017e+01 0.000000000000000000e+00 2.155189999999999884e-02 -2.248354600000000009e-02 1.034822146299999979e+01
1.046170789299999981e+01 0.000000000000000000e+00 0.000000000000000000e+00 -2.423441100000000084e-02 1.087745724200000019e+01 0.000000000000000000e+00 2.172576500000000105e-02 -2.266492700000000138e-02 1.043170368100000012e+01
1.052360354400000020e+01 0.000000000000000000e+00 0.000000000000000000e+00 2.441319000000000128e-02 1.094175270899999930e+01 0.000000000000000000e+00 2.187767399999999973e-02 2.269467899999999885e-02 1.049343844500000067e+01
1.049848074600000025e+01 0.000000000000000000e+00 0.000000000000000000e+00 -2.431959499999999941e-02 1.091569145200000079e+01 0.000000000000000000e+00 2.180213099999999890e-02 -2.274459399999999992e-02 1.046837106899999981e+01
1.043259618399999944e+01 0.000000000000000000e+00 0.000000000000000000e+00 2.420206600000000124e-02 1.084712922599999985e+01 0.000000000000000000e+00 2.168847800000000062e-02 2.249841699999999972e-02 1.040269195099999955e+01
1.039352134499999991e+01 0.000000000000000000e+00 0.000000000000000000e+00 2.411141799999999905e-02 1.080650177000000056e+01 0.000000000000000000e+00 2.160724400000000114e-02 2.241415100000000021e-02 1.036372911600000002e+01
1.055212996400000058e+01 0.000000000000000000e+00 0.000000000000000000e+00 -2.444387300000000138e-02 1.097147269499999922e+01 0.000000000000000000e+00 2.191354400000000008e-02 -2.286082399999999834e-02 1.052186642100000036e+01
1.043447679700000030e+01 0.000000000000000000e+00 0.000000000000000000e+00 -2.417133100000000076e-02 1.084914397999999913e+01 0.000000000000000000e+00 2.166921499999999862e-02 -2.260593199999999872e-02 1.040455068400000016e+01
1.033414796399999958e+01 0.000000000000000000e+00 0.000000000000000000e+00 -2.393891999999999895e-02 1.074482806800000034e+01 0.000000000000000000e+00 2.146086200000000069e-02 -2.238857299999999842e-02 1.030450959400000066e+01
1.032129808100000012e+01 0.000000000000000000e+00 0.000000000000000000e+00 2.394387099999999852e-02 1.073140875800000060e+01 0.000000000000000000e+00 2.145709800000000084e-02 2.225839699999999921e-02 1.029171287499999998e+01
1.041799617699999914e+01 0.000000000000000000e+00 0.000000000000000000e+00 2.416819599999999943e-02 1.083194909600000067e+01 0.000000000000000000e+00 2.165812500000000029e-02 2.246693199999999849e-02 1.038813379399999981e+01
1.048600475699999990e+01 0.000000000000000000e+00 0.000000000000000000e+00 -2.429069500000000104e-02 1.090271966599999942e+01 0.000000000000000000e+00 2.177622300000000080e-02 -2.271756600000000154e-02 1.045593086100000058e+01
1.053166786000000066e+01 0.000000000000000000e+00 0.000000000000000000e+00 -2.439647299999999838e-02 1.095019742600000079e+01 0.000000000000000000e+00 2.187105099999999899e-02 -2.281649300000000019e-02 1.050146300199999949e+01
1.051591200400000048e+01 0.000000000000000000e+00 0.000000000000000000e+00 2.439534599999999831e-02 1.093375555000000077e+01 0.000000000000000000e+00 2.186168399999999928e-02 2.267809200000000039e-02 1.048576895200000081e+01
1.047341461599999946e+01 0.000000000000000000e+00 0.000000000000000000e+00 -2.426152999999999990e-02 1.088962919099999915e+01 0.000000000000000000e+00 2.175007699999999961e-02 -2.269028899999999890e-02 1.044337682899999997e+01
1.060184168299999996e+01 0.000000000000000000e+00 0.000000000000000000e+00 2.459468999999999891e-02 1.102309959499999970e+01 0.000000000000000000e+00 2.204032499999999950e-02 2.286340400000000037e-02 1.057145232100000065e+01
1.033653499000000053e+01 0.000000000000000000e+00 0.000000000000000000e+00 2.397921800000000006e-02 1.074725109599999939e+01 0.000000000000000000e+00 2.148877500000000162e-02 2.229125699999999835e-02 1.030690610799999973e+01
1.040832472099999961e+01 0.000000000000000000e+00 0.000000000000000000e+00 -2.411075000000000024e-02 1.082195261799999919e+01 0.000000000000000000e+00 2.161490500000000023e-02 -2.254927400000000109e-02 1.037847361200000051e+01
1.031748972799999997e+01 0.000000000000000000e+00 0.000000000000000000e+00 2.393503599999999981e-02 1.072744908199999969e+01 0.000000000000000000e+00 2.144918100000000119e-02 2.225018499999999871e-02 1.028791543800000063e+01
1.042508289300000079e+01 0.000000000000000000e+00 0.000000000000000000e+00 2.418463599999999894e-02 1.083931739900000046e+01 0.000000000000000000e+00 2.167285799999999971e-02 2.248221499999999984e-02 1.039520019599999934e+01
1.030568662599999996e+01 0.000000000000000000e+00 0.000000000000000000e+00 -2.387299000000000018e-02 1.071523567400000054e+01 0.000000000000000000e+00 2.140175700000000042e-02 -2.232691300000000031e-02 1.027612988399999949e+01
1.045033366500000049e+01 0.000000000000000000e+00 0.000000000000000000e+00 2.424321399999999904e-02 1.086557149499999930e+01 0.000000000000000000e+00 2.172535199999999986e-02 2.253666899999999876e-02 1.042037858900000025e+01
1.042667033899999929e+01 0.000000000000000000e+00 0.000000000000000000e+00 2.418831899999999979e-02 1.084096792000000065e+01 0.000000000000000000e+00 2.167615800000000092e-02 2.248563799999999877e-02 1.039678309199999973e+01
1.047458543700000000e+01 0.000000000000000000e+00 0.000000000000000000e+00 2.429947500000000093e-02 1.089078689599999983e+01 0.000000000000000000e+00 2.177576999999999985e-02 2.258896900000000041e-02 1.044456084399999973e+01
1.042568574100000056e+01 0.000000000000000000e+00 0.000000000000000000e+00 2.418603500000000156e-02 1.083994419999999970e+01 0.000000000000000000e+00 2.167411099999999938e-02 2.248351499999999906e-02 1.039580131600000001e+01
1.030693668199999991e+01 0.000000000000000000e+00 0.000000000000000000e+00 2.391055500000000000e-02 1.071647671799999912e+01 0.000000000000000000e+00 2.142724199999999912e-02 2.222742600000000152e-02 1.027739264200000058e+01
1.051614257199999969e+01 0.000000000000000000e+00 0.000000000000000000e+00 2.439588100000000120e-02 1.093399527999999954e+01 0.000000000000000000e+00 2.186216300000000043e-02 2.267858899999999900e-02 1.048599885900000039e+01
1.058491344599999984e+01 0.000000000000000000e+00 0.000000000000000000e+00 -2.451981500000000036e-02 1.100555899599999954e+01 0.000000000000000000e+00 2.198162600000000064e-02 -2.293184800000000120e-02 1.055455588000000056e+01
1.058868807600000039e+01 0.000000000000000000e+00 0.000000000000000000e+00 2.456417600000000007e-02 1.100942333599999934e+01 0.000000000000000000e+00 2.201297899999999849e-02 2.283503699999999900e-02 1.055833641699999959e+01
1.029259423399999918e+01 0.000000000000000000e+00 0.000000000000000000e+00 2.387728199999999967e-02 1.070156438100000074e+01 0.000000000000000000e+00 2.139742600000000064e-02 2.219649599999999959e-02 1.026309130599999975e+01
1.043785447600000005e+01 0.000000000000000000e+00 0.000000000000000000e+00 2.421426399999999923e-02 1.085259645300000031e+01 0.000000000000000000e+00 2.169940899999999936e-02 2.250975699999999829e-02 1.040793517000000001e+01
1.059746178299999997e+01 0.000000000000000000e+00 0.000000000000000000e+00 -2.454888300000000051e-02 1.101860600600000062e+01 0.000000000000000000e+00 2.200768499999999905e-02 -2.295903300000000022e-02 1.056706822900000020e+01
1.054986895799999935e+01 0.000000000000000000e+00 0.000000000000000000e+00 2.447412100000000146e-02 1.096906176399999922e+01 0.000000000000000000e+00 2.193227799999999950e-02 2.275132200000000091e-02 1.051962857200000023e+01
1.052239962400000017e+01 0.000000000000000000e+00 0.000000000000000000e+00 2.441039700000000034e-02 1.094050095200000072e+01 0.000000000000000000e+00 2.187517099999999881e-02 2.269208299999999831e-02 1.049223797700000027e+01
1.045029665600000079e+01 0.000000000000000000e+00 0.000000000000000000e+00 -2.420797699999999858e-02 1.086559252099999995e+01 0.000000000000000000e+00 2.170206800000000144e-02 -2.264020500000000005e-02 1.042032517100000000e+01
1.027491091299999937e+01 0.000000000000000000e+00 0.000000000000000000e+00 2.383626000000000147e-02 1.068317842299999931e+01 0.000000000000000000e+00 2.136066299999999848e-02 2.215836100000000142e-02 1.024545867199999982e+01
1.019715807300000066e+01 0.000000000000000000e+00 0.000000000000000000e+00 -2.362158500000000050e-02 1.060239418499999964e+01 0.000000000000000000e+00 2.117637600000000023e-02 -2.209178900000000056e-02 1.016791259100000033e+01
1.035385705100000031e+01 0.000000000000000000e+00 0.000000000000000000e+00 2.401940300000000167e-02 1.076526143899999965e+01 0.000000000000000000e+00 2.152478600000000061e-02 2.232861300000000063e-02 1.032417851700000000e+01
1.028473864000000049e+01 0.000000000000000000e+00 0.000000000000000000e+00 -2.382446400000000006e-02 1.069345521300000001e+01 0.000000000000000000e+00 2.135825400000000013e-02 -2.228152900000000131e-02 1.025524197600000065e+01
1.046255267899999986e+01 0.000000000000000000e+00 0.000000000000000000e+00 2.427156100000000052e-02 1.087827602399999982e+01 0.000000000000000000e+00 2.175075500000000009e-02 2.256301999999999960e-02 1.043256257800000064e+01
1.032020631700000024e+01 0.000000000000000000e+00 0.000000000000000000e+00 2.394133799999999951e-02 1.073027361299999960e+01 0.000000000000000000e+00 2.145482900000000165e-02 2.225604299999999966e-02 1.029062423999999965e+01
1.050253708900000049e+01 0.000000000000000000e+00 0.000000000000000000e+00 2.436431899999999887e-02 1.091984919000000076e+01 0.000000000000000000e+00 2.183387900000000048e-02 2.264924899999999977e-02 1.047243237500000035e+01
1.032083627199999931e+01 0.000000000000000000e+00 0.000000000000000000e+00 2.394280000000000019e-02 1.073092859900000029e+01 0.000000000000000000e+00 2.145613799999999960e-02 2.225740199999999905e-02 1.029125239000000036e+01
1.048484650800000040e+01 0.000000000000000000e+00 0.000000000000000000e+00 -2.428801100000000171e-02 1.090151538799999997e+01 0.000000000000000000e+00 2.177381700000000087e-02 -2.271505600000000083e-02 1.045477593400000060e+01
1.023600214700000066e+01 0.000000000000000000e+00 0.000000000000000000e+00 2.374599700000000133e-02 1.064272363999999982e+01 0.000000000000000000e+00 2.127977500000000077e-02 2.207445300000000082e-02 1.020666143499999912e+01
1.014571963500000074e+01 0.000000000000000000e+00 0.000000000000000000e+00 2.353655500000000067e-02 1.054885380600000033e+01 0.000000000000000000e+00 2.109208599999999947e-02 2.187975400000000126e-02 1.011663771099999920e+01
1.028649829999999987e+01 0.000000000000000000e+00 0.000000000000000000e+00 2.386314100000000091e-02 1.069522622799999922e+01 0.000000000000000000e+00 2.138475299999999940e-02 2.218335000000000098e-02 1.025701284500000021e+01
1.041106321400000034e+01 0.000000000000000000e+00 0.000000000000000000e+00 -2.411709299999999917e-02 1.082479993799999995e+01 0.000000000000000000e+00 2.162059200000000098e-02 -2.255520700000000073e-02 1.038120425099999977e+01
1.063471828199999969e+01 0.000000000000000000e+00 0.000000000000000000e+00 -2.463518699999999936e-02 1.105734308199999916e+01 0.000000000000000000e+00 2.208505499999999927e-02 -2.303974799999999878e-02 1.060421787499999979e+01
1.035361576100000036e+01 0.000000000000000000e+00 0.000000000000000000e+00 2.401884300000000153e-02 1.076501056200000050e+01 0.000000000000000000e+00 2.152428400000000117e-02 2.232809200000000077e-02 1.032393791900000046e+01
1.042927575000000040e+01 0.000000000000000000e+00 0.000000000000000000e+00 -2.415928300000000015e-02 1.084373624300000039e+01 0.000000000000000000e+00 2.165841400000000083e-02 -2.259466400000000041e-02 1.039936455399999993e+01
1.055730235100000058e+01 0.000000000000000000e+00 0.000000000000000000e+00 2.449136600000000052e-02 1.097679051799999961e+01 0.000000000000000000e+00 2.194773100000000157e-02 2.276735300000000059e-02 1.052704065700000058e+01
1.050668445099999992e+01 0.000000000000000000e+00 0.000000000000000000e+00 -2.433859899999999896e-02 1.092422117299999940e+01 0.000000000000000000e+00 2.181916799999999990e-02 -2.276236699999999863e-02 1.047655124599999965e+01
1.053434641700000007e+01 0.000000000000000000e+00 0.000000000000000000e+00 -2.440267700000000109e-02 1.095298242900000041e+01 0.000000000000000000e+00 2.187661299999999961e-02 -2.282229599999999886e-02 1.050413387699999923e+01
1.053516761000000024e+01 0.000000000000000000e+00 0.000000000000000000e+00 2.444001599999999844e-02 1.095377626600000021e+01 0.000000000000000000e+00 2.190171499999999868e-02 2.271961800000000045e-02 1.050496936300000073e+01
1.040784230599999916e+01 0.000000000000000000e+00 0.000000000000000000e+00 2.414464100000000141e-02 1.082139176699999972e+01 0.000000000000000000e+00 2.163701599999999850e-02 2.244503399999999912e-02 1.037800902799999925e+01
1.054309945800000037e+01 0.000000000000000000e+00 0.000000000000000000e+00 2.445841699999999966e-02 1.096202328200000053e+01 0.000000000000000000e+00 2.191820499999999963e-02 2.273672300000000035e-02 1.051287847599999914e+01
1.054580248699999956e+01 0.000000000000000000e+00 0.000000000000000000e+00 2.446468799999999832e-02 1.096483371399999918e+01 0.000000000000000000e+00 2.192382400000000148e-02 2.274255299999999869e-02 1.051557375700000030e+01
1.042329812999999916e+01 0.000000000000000000e+00 0.000000000000000000e+00 2.418049599999999924e-02 1.083746171800000013e+01 0.000000000000000000e+00 2.166914799999999919e-02 2.247836599999999962e-02 1.039342054900000001e+01
1.036394821899999918e+01 0.000000000000000000e+00 0.000000000000000000e+00 -2.400795199999999907e-02 1.077581258899999916e+01 0.000000000000000000e+00 2.152274900000000074e-02 -2.245313399999999959e-02 1.033422438200000038e+01
1.033863653999999954e+01 0.000000000000000000e+00 0.000000000000000000e+00 2.398409400000000094e-02 1.074943615099999938e+01 0.000000000000000000e+00 2.149314399999999875e-02 2.229578899999999989e-02 1.030900163499999955e+01
1.046964849599999958e+01 0.000000000000000000e+00 0.000000000000000000e+00 -2.425280499999999881e-02 1.088571340600000070e+01 0.000000000000000000e+00 2.174225600000000147e-02 -2.268212999999999827e-02 1.043962151000000027e+01
1.047282714199999987e+01 0.000000000000000000e+00 0.000000000000000000e+00 -2.426016900000000157e-02 1.088901837100000058e+01 0.000000000000000000e+00 2.174885699999999991e-02 -2.268901699999999882e-02 1.044279103899999939e+01
1.041856840099999992e+01 0.000000000000000000e+00 0.000000000000000000e+00 -2.413447900000000035e-02 1.083260338200000028e+01 0.000000000000000000e+00 2.163617799999999897e-02 -2.257146700000000131e-02 1.038868791300000005e+01
