4.272900000000000031e-01 3.013399999999999856e+00 2.464920000000000222e+00 7.618999999999999384e-02 3.128359999999999808e+00 7.838169999999999860e+00 2.462799999999999989e-01 7.845159999999999911e+00 2.518949999999999800e+00 1.027614999999999945e+01 8.958840000000000359e+00 7.942149999999999821e+00 5.199650000000000105e+00 2.209090000000000220e+00 2.355570000000000164e+00 5.679570000000000007e+00 2.479639999999999844e+00 7.588659999999999961e+00 5.234639999999999738e+00 7.997139999999999915e+00 2.091509999999999980e+00 4.866189999999999571e+00 7.920580000000000176e+00 7.922539999999999694e+00 3.250859999999999861e+00 5.670729999999999826e+00 3.327970000000000095e+00 2.893580000000000041e+00 5.045429999999999637e+00 7.470609999999999751e+00 2.575299999999999923e+00 1.042305999999999955e+01 2.485390000000000210e+00 2.711539999999999839e+00 4.751400000000000068e-01 8.143000000000000682e+00 8.094319999999999737e+00 5.106760000000000410e+00 1.922220000000000040e+00 7.790000000000000036e+00 5.780140000000000278e+00 8.005810000000000315e+00 8.298140000000000072e+00 1.044885999999999981e+01 2.699209999999999887e+00 7.634199999999999875e+00 1.082376000000000005e+01 7.725920000000000343e+00 2.930449999999999999e+00 2.368949999999999889e+00 4.885749999999999815e+00 2.735539999999999861e+00 3.106819999999999915e+00 1.014317999999999920e+01 2.751329999999999831e+00 8.026960000000000761e+00 5.372589999999999755e+00 2.434989999999999988e+00 8.073589999999999378e+00 9.966250000000000497e+00 8.163130000000000663e+00 1.999829999999999997e+00 5.283979999999999677e+00 7.954640000000000377e+00 2.263230000000000075e+00 1.055157999999999952e+01 8.153249999999999886e+00 7.487370000000000303e+00 4.542220000000000368e+00 7.877530000000000143e+00 8.381299999999999528e+00 1.012284999999999968e+01 1.027004999999999946e+01 5.110459999999999781e+00 5.012760000000000105e+00 2.664799999999999947e-01 5.528340000000000032e+00 1.017695999999999934e+01 2.327799999999999869e-01 1.097286000000000072e+01 5.455379999999999896e+00 9.485999999999999988e-02 1.099868000000000023e+01 1.549800000000000066e-01 5.651679999999999815e+00 5.104630000000000223e+00 5.248020000000000351e+00 5.181420000000000137e+00 5.699799999999999756e+00 1.758200000000000041e-01 5.576380000000000337e+00 9.573280000000000456e+00 4.727219999999999978e+00 5.416009999999999991e+00 2.064699999999999869e-01 1.045758000000000010e+01 4.471280000000000143e+00 4.315690000000000026e+00 3.742399999999999949e+00 4.169629999999999725e+00 3.931859999999999911e+00 8.469599999999999795e+00 3.798890000000000100e+00 9.021819999999999951e+00 3.320770000000000000e+00 3.347350000000000048e+00 8.966150000000000730e+00 8.577220000000000510e+00 9.618050000000000210e+00 6.400369999999999671e+00 3.400100000000000122e+00 9.609270000000000422e+00 4.735990000000000144e+00 8.611900000000000333e+00 9.314040000000000319e+00 9.088570000000000704e+00 3.822550000000000114e+00 9.112930000000000419e+00 1.011326000000000036e+01 9.248060000000000613e+00 3.821439999999999948e+00 9.554299999999999571e+00 4.792299999999999893e-01 3.969700000000000006e+00 1.468080000000000052e+00 6.659299999999999997e+00 7.056479999999999642e+00 3.855280000000000040e+00 6.729949999999999655e+00 3.290340000000000042e+00 6.949360000000000426e+00 6.825260000000000105e+00 1.528650000000000064e+00 2.209509999999999863e+00 1.248150000000000093e+00 9.434929999999999595e+00 1.329530000000000101e+00 7.123870000000000147e+00 9.143489999999999895e+00 8.866519999999999513e+00 1.201259999999999994e+00 8.928399999999999892e+00 7.269440000000000346e+00 8.637259999999999494e+00 3.409769999999999968e+00 1.473349999999999937e+00 3.341410000000000213e+00 1.525560000000000027e+00 1.903999999999999915e+00 9.140599999999999170e+00 4.367049999999999876e+00 6.782829999999999693e+00 4.471569999999999823e+00 4.044290000000000163e+00 6.562529999999999752e+00 9.407489999999999242e+00 6.329930000000000057e+00 1.095616000000000057e+01 3.431160000000000210e+00 9.506119999999999237e+00 1.341979999999999951e+00 9.818780000000000285e+00 9.208009999999999806e+00 6.708400000000000141e+00 5.852409999999999890e+00 6.551709999999999923e+00 6.815229999999999677e+00 1.272799999999999931e+00 4.123890000000000278e+00 3.841769999999999907e+00 7.825199999999999934e-01 1.863269999999999982e+00 4.729580000000000339e+00 9.537200000000000344e+00 3.815830000000000055e+00 6.912740000000000329e+00 1.729810000000000070e+00 4.239180000000000170e+00 9.416199999999999903e+00 6.232630000000000337e+00 9.170780000000000598e+00 6.265170000000000350e+00 5.393799999999999706e-01 9.042899999999999494e+00 3.995400000000000063e+00 3.412830000000000030e+00 9.627179999999999183e+00 6.008900000000000352e-01 1.701109999999999900e+00 9.163990000000000080e+00 9.855679999999999552e+00 6.554330000000000211e+00 9.136829999999999785e+00 9.972299999999999498e-01 4.166570000000000107e+00 4.063950000000000173e+00 1.068089999999999984e+00 9.841499999999999693e-01 1.490609999999999991e+00 6.516390000000000349e+00 4.046610000000000262e+00 7.445199999999999596e-01 7.111749999999999794e+00 8.693179999999999907e+00 6.730879999999999974e+00 5.525200000000000111e-01 6.180979999999999919e+00 6.230159999999999698e+00 9.543269999999999698e+00 8.449040000000000106e+00 5.841160000000000352e+00 6.176099999999999923e+00 6.966179999999999595e+00 7.107750000000000234e+00 5.863199999999999967e+00 3.972649999999999793e+00 1.607210000000000027e+00 4.657740000000000435e+00 1.860379999999999923e+00 9.465159999999999130e+00 3.371410000000000018e+00 6.046879999999999811e+00 1.207680000000000087e+00 9.687060000000000670e+00 1.353920000000000012e+00 1.020550000000000068e+00 8.600799999999999557e+00 6.194020000000000081e+00 6.737499999999999822e+00 3.892149999999999999e+00 1.308999999999999941e+00 4.026699999999999946e+00 4.412200000000000344e+00 6.023550000000000182e+00 6.397529999999999717e+00 9.845470000000000610e+00 7.252800000000000358e-01 7.082550000000000345e+00 8.749869999999999592e+00 5.756280000000000285e+00 1.472120000000000095e+00 3.144509999999999916e+00 3.977240000000000109e+00 9.455099999999999838e+00 3.680340000000000167e+00 8.267700000000000049e-01 1.307560000000000056e+00 1.098625999999999969e+01 3.982190000000000119e+00 1.229430000000000023e+00 9.882310000000000372e+00 9.162259999999999849e+00 6.477979999999999627e+00 2.750059999999999949e+00 4.246970000000000134e+00 6.997659999999999769e+00 4.243219999999999992e+00 9.340749999999999886e+00 6.680130000000000123e+00 8.588850000000000762e+00 3.282119999999999926e+00 6.485680000000000334e+00 6.783540000000000347e+00 9.606510000000000105e+00 3.928100000000000147e+00 1.067839999999999900e+00 9.475390000000000867e+00 1.539690000000000003e+00 1.211240000000000094e+00 6.312070000000000292e+00 1.018950000000000022e+00 7.180740000000000123e+00 8.788599999999999746e-01 1.194669999999999899e+00 4.502130000000000187e+00 6.558869999999999756e+00 6.657720000000000304e+00 1.515779999999999905e+00 1.233659999999999979e+00 6.994810000000000194e+00 1.353410000000000002e+00 9.018649999999999167e+00
1.009256000000000064e+01 2.394940000000000069e+00 2.243599999999999817e+00 1.019298999999999999e+01 2.498639999999999972e+00 7.511350000000000193e+00 1.001731999999999978e+01 7.762929999999999886e+00 2.201919999999999877e+00 1.698300000000000087e-01 7.782879999999999576e+00 7.629800000000000360e+00 4.571100000000000385e+00 2.269359999999999822e+00 2.474470000000000169e+00 5.291100000000000136e+00 2.468970000000000109e+00 7.617200000000000415e+00 5.142680000000000362e+00 7.790470000000000006e+00 2.503810000000000091e+00 5.180839999999999890e+00 7.951909999999999812e+00 7.932629999999999626e+00 2.734259999999999913e+00 5.070759999999999934e+00 2.703679999999999861e+00 3.051610000000000156e+00 5.195759999999999934e+00 7.501000000000000334e+00 2.426890000000000214e+00 1.011670999999999943e+01 2.735440000000000094e+00 2.749979999999999869e+00 1.032020999999999944e+01 7.516119999999999912e+00 7.461689999999999934e+00 5.162849999999999717e+00 2.391960000000000086e+00 7.632200000000000095e+00 4.997270000000000323e+00 7.307920000000000194e+00 7.793070000000000164e+00 1.634700000000000042e-01 2.766539999999999999e+00 7.659139999999999837e+00 1.050871000000000066e+01 7.254439999999999777e+00 2.663339999999999819e+00 2.451410000000000089e+00 5.085650000000000226e+00 2.563070000000000181e+00 2.602390000000000203e+00 9.792859999999999232e+00 2.530349999999999877e+00 7.529359999999999609e+00 5.024600000000000399e+00 2.472210000000000019e+00 7.739700000000000024e+00 4.248999999999999999e-02 7.884380000000000166e+00 2.586090000000000000e+00 4.773139999999999716e+00 7.529490000000000016e+00 2.300229999999999997e+00 9.777229999999999421e+00 7.569659999999999833e+00 7.877340000000000231e+00 5.014029999999999987e+00 8.016209999999999170e+00 7.946710000000000385e+00 1.002552999999999983e+01 1.064400000000000068e-01 4.839199999999999946e+00 4.995149999999999757e+00 4.585999999999999799e-02 4.868699999999999584e+00 9.946569999999999467e+00 1.437599999999999989e-01 1.032271000000000072e+01 4.887319999999999887e+00 1.071799999999999975e-01 1.046151000000000053e+01 1.008547000000000082e+01 5.090230000000000032e+00 5.231919999999999682e+00 4.844809999999999839e+00 5.128870000000000040e+00 5.230520000000000280e+00 1.010307000000000066e+01 5.104650000000000354e+00 1.016230999999999973e+01 4.901250000000000107e+00 4.994159999999999933e+00 5.253000000000000030e-02 2.158700000000000063e-01 4.251089999999999591e+00 3.771619999999999973e+00 3.895540000000000003e+00 4.122910000000000075e+00 3.858150000000000190e+00 9.133749999999999147e+00 3.695260000000000211e+00 8.873910000000000409e+00 3.757210000000000161e+00 3.603959999999999830e+00 9.243710000000000093e+00 9.039460000000000051e+00 9.397249999999999659e+00 4.038369999999999571e+00 3.698980000000000157e+00 8.931599999999999540e+00 4.071550000000000225e+00 8.563729999999999620e+00 8.906929999999999126e+00 9.389499999999999957e+00 3.858029999999999848e+00 8.708949999999999747e+00 9.431820000000000093e+00 8.828670000000000684e+00 3.634959999999999969e+00 8.279999999999999583e-01 1.540550000000000086e+00 4.028850000000000264e+00 8.735399999999999832e-01 6.549500000000000099e+00 4.087240000000000428e+00 6.256590000000000096e+00 1.286650000000000071e+00 4.044419999999999682e+00 6.278810000000000002e+00 6.107569999999999943e+00 9.014559999999999462e+00 8.603699999999999681e-01 1.263220000000000010e+00 9.130860000000000198e+00 1.113019999999999898e+00 5.890719999999999956e+00 9.209160000000000679e+00 6.350590000000000401e+00 1.111499999999999932e+00 8.669029999999999347e+00 6.314099999999999824e+00 6.023690000000000211e+00 3.943519999999999914e+00 1.118700000000000028e+00 4.029230000000000089e+00 4.183919999999999639e+00 1.309979999999999922e+00 9.089290000000000092e+00 3.807920000000000194e+00 6.550659999999999705e+00 3.669669999999999987e+00 3.989069999999999894e+00 6.450000000000000178e+00 8.866369999999999862e+00 8.896110000000000184e+00 1.600379999999999914e+00 3.484399999999999942e+00 8.987679999999999225e+00 1.278790000000000093e+00 8.656430000000000291e+00 9.077609999999999957e+00 6.913969999999999949e+00 3.780400000000000205e+00 9.077510000000000190e+00 6.645190000000000374e+00 8.638360000000000483e+00 4.129480000000000040e+00 3.639569999999999972e+00 1.192870000000000097e+00 3.327170000000000183e+00 3.308889999999999887e+00 6.867770000000000152e+00 3.627209999999999823e+00 8.726409999999999556e+00 1.452420000000000044e+00 3.726910000000000167e+00 8.779849999999999710e+00 6.360509999999999664e+00 9.208130000000000592e+00 3.381860000000000088e+00 9.376700000000000035e-01 8.877150000000000318e+00 3.707969999999999988e+00 6.415510000000000268e+00 8.705000000000000071e+00 9.072860000000000369e+00 1.205619999999999914e+00 8.947169999999999845e+00 9.228479999999999350e+00 6.453859999999999708e+00 1.161310000000000064e+00 7.930300000000000127e-01 3.477590000000000181e+00 1.425620000000000109e+00 1.226250000000000062e+00 8.479010000000000602e+00 1.472860000000000058e+00 5.952230000000000132e+00 4.106869999999999798e+00 1.329309999999999992e+00 6.057389999999999830e+00 9.142799999999999372e+00 6.709389999999999965e+00 6.143699999999999717e-01 4.366640000000000299e+00 6.341409999999999769e+00 6.532499999999999973e-01 8.832380000000000564e+00 6.733130000000000059e+00 6.899269999999999570e+00 1.635799999999999921e+00 6.437359999999999971e+00 6.548919999999999852e+00 8.560579999999999856e+00 1.549900000000000055e+00 4.328990000000000116e+00 8.769599999999999618e-01 9.821400000000000130e-01 3.063499999999999890e+00 5.873219999999999885e+00 9.196600000000000330e-01 9.108679999999999666e+00 1.028639999999999999e+00 1.117869999999999919e+00 8.728920000000000456e+00 6.013189999999999813e+00 6.732599999999999696e+00 4.408699999999999619e+00 7.154199999999999449e-01 6.040420000000000122e+00 4.062560000000000393e+00 6.125569999999999737e+00 6.219430000000000014e+00 9.699740000000000251e+00 1.792610000000000037e+00 6.328260000000000218e+00 9.433949999999999392e+00 6.413619999999999877e+00 1.625680000000000014e+00 3.280569999999999986e+00 3.481009999999999938e+00 1.326869999999999994e+00 3.706830000000000069e+00 8.574260000000000659e+00 1.211230000000000029e+00 8.880010000000000403e+00 3.559569999999999901e+00 1.286829999999999918e+00 9.063019999999999854e+00 8.611869999999999692e+00 6.869100000000000428e+00 3.679230000000000000e+00 3.489930000000000199e+00 6.547620000000000218e+00 3.536319999999999908e+00 8.624040000000000816e+00 6.162219999999999587e+00 8.559990000000000876e+00 4.159609999999999808e+00 6.241410000000000124e+00 8.707779999999999632e+00 9.413410000000000721e+00 1.214439999999999964e+00 1.506510000000000016e+00 9.064999999999999725e-01 1.759079999999999977e+00 6.397000000000000464e-01 5.741469999999999629e+00 1.981749999999999901e+00 6.849960000000000271e+00 1.822510000000000074e+00 1.639720000000000066e+00 6.380069999999999908e+00 6.557559999999999611e+00 6.304540000000000255e+00 1.723910000000000053e+00 1.306440000000000046e+00 6.759459999999999802e+00 1.794729999999999936e+00 6.543650000000000411e+00
7.508899999999999464e-01 2.910989999999999966e+00 2.762280000000000069e+00 1.025717000000000034e+01 2.596969999999999779e+00 8.026859999999999218e+00 2.733999999999999972e-02 8.380509999999999238e+00 2.093669999999999920e+00 1.013006000000000029e+01 7.769849999999999923e+00 7.921319999999999695e+00 5.112339999999999662e+00 2.444510000000000183e+00 2.958629999999999871e+00 5.114110000000000156e+00 2.722729999999999873e+00 7.516420000000000101e+00 5.748070000000000235e+00 8.075710000000000832e+00 2.804330000000000211e+00 5.409159999999999968e+00 7.765620000000000189e+00 7.623090000000000366e+00 2.855999999999999872e+00 5.612309999999999910e+00 2.774030000000000218e+00 2.780250000000000110e+00 5.126229999999999620e+00 7.618459999999999788e+00 2.211479999999999890e+00 1.091403999999999996e+01 3.050120000000000164e+00 2.892020000000000035e+00 7.152000000000000024e-02 7.706789999999999807e+00 8.495070000000000121e+00 5.758200000000000429e+00 2.392180000000000195e+00 8.117079999999999629e+00 5.083000000000000185e+00 7.532219999999999693e+00 8.220840000000000813e+00 1.089474000000000053e+01 2.314680000000000071e+00 7.583990000000000009e+00 1.058154000000000039e+01 7.937730000000000175e+00 2.120260000000000034e+00 2.604830000000000201e+00 5.778389999999999915e+00 2.511760000000000215e+00 2.447039999999999882e+00 1.036585000000000001e+01 2.443589999999999929e+00 7.907519999999999882e+00 5.178490000000000038e+00 2.671670000000000211e+00 8.256190000000000140e+00 1.023595000000000077e+01 8.168100000000000804e+00 2.661550000000000082e+00 4.665119999999999933e+00 7.355480000000000018e+00 2.525040000000000173e+00 9.952830000000000510e+00 8.224940000000000140e+00 7.758169999999999789e+00 5.123380000000000045e+00 8.164649999999999963e+00 7.470760000000000289e+00 1.014033000000000051e+01 1.046776999999999980e+01 5.356779999999999653e+00 5.196320000000000050e+00 7.961300000000000043e-01 5.461350000000000371e+00 1.032354999999999912e+01 1.041296999999999962e+01 1.561299999999999910e-01 5.458450000000000024e+00 2.929000000000000006e-02 1.078184000000000076e+01 9.893980000000000885e+00 5.321279999999999788e+00 5.000569999999999737e+00 4.917379999999999640e+00 5.373020000000000351e+00 5.264660000000000117e+00 1.043994999999999962e+01 5.248509999999999565e+00 9.909929999999999239e+00 5.209329999999999572e+00 4.684820000000000206e+00 1.062184000000000061e+01 5.719899999999999984e-01 3.991210000000000147e+00 4.237809999999999633e+00 3.483010000000000161e+00 3.201849999999999863e+00 3.233350000000000168e+00 8.340790000000000148e+00 3.715100000000000069e+00 9.306660000000000821e+00 3.553420000000000023e+00 3.518559999999999910e+00 9.354029999999999845e+00 8.967840000000000700e+00 8.777570000000000761e+00 4.524639999999999773e+00 4.131429999999999936e+00 8.334189999999999543e+00 3.604709999999999859e+00 8.726259999999999906e+00 2.462999999999999912e-02 1.038264000000000031e+01 3.346989999999999910e+00 8.797940000000000538e+00 8.989420000000000854e+00 8.931039999999999424e+00 3.928230000000000111e+00 4.161299999999999999e-01 2.084280000000000133e+00 3.877159999999999940e+00 1.444779999999999953e+00 6.522509999999999586e+00 6.604059999999999597e+00 6.352219999999999978e+00 3.487340000000000106e+00 3.732540000000000191e+00 6.594389999999999752e+00 6.749249999999999972e+00 1.015818999999999939e+01 4.159939999999999749e+00 1.614640000000000075e+00 9.061049999999999827e+00 1.578549999999999898e+00 6.152790000000000425e+00 9.744030000000000413e+00 6.534950000000000259e+00 8.921099999999999586e-01 9.279650000000000176e+00 6.667639999999999567e+00 6.211890000000000356e+00 6.940479999999999983e+00 1.257540000000000102e+00 3.616960000000000175e+00 1.182960000000000012e+00 1.521290000000000031e+00 7.087180000000000035e+00 4.264610000000000234e+00 6.831680000000000419e+00 3.751279999999999948e+00 4.253350000000000186e+00 6.226200000000000401e+00 8.804809999999999803e+00 1.541639999999999899e+00 1.006141000000000041e+01 5.471020000000000216e+00 6.446220000000000283e+00 8.194799999999999862e-01 9.139979999999999549e+00 9.388899999999999579e+00 6.948920000000000208e+00 3.877909999999999968e+00 9.584720000000000795e+00 6.140410000000000146e+00 9.006579999999999586e+00 3.776549999999999851e+00 2.721550000000000136e+00 1.251630000000000020e+00 6.787679999999999936e+00 3.137589999999999879e+00 6.381310000000000038e+00 8.939000000000000279e-01 9.167059999999999320e+00 1.383500000000000008e-01 4.031900000000000261e+00 9.307919999999999305e+00 6.528170000000000250e+00 6.326340000000000074e+00 1.866409999999999902e+00 1.023649999999999949e+00 9.834070000000000533e+00 4.233570000000000277e+00 6.748630000000000351e+00 9.087379999999999569e+00 7.722400000000000375e-01 7.170499999999999652e-01 9.305389999999999162e+00 9.637150000000000105e+00 5.947119999999999962e+00 9.699900000000000189e-01 1.035594000000000037e+01 8.245380000000000820e+00 4.130469999999999864e+00 8.820439999999999614e+00 1.211100000000000065e+00 1.618530000000000024e+00 6.954089999999999883e+00 1.369029999999999969e+00 1.495409999999999906e+00 7.123680000000000234e+00 9.014269999999999783e+00 9.614359999999999573e+00 1.850899999999999990e+00 3.245820000000000149e+00 6.373669999999999725e+00 2.456299999999999872e-01 6.303219999999999601e+00 8.930320000000000036e+00 9.007130000000000081e+00 1.349879999999999969e+00 7.272199999999999775e+00 4.642439999999999678e+00 7.393800000000000372e-01 1.086109999999999909e+00 4.394479999999999720e+00 8.627330000000000609e+00 4.229110000000000369e+00 3.942200000000000149e+00 6.113109999999999822e+00 1.262410000000000032e+00 1.607089999999999907e+00 1.566310000000000091e+00 7.052800000000000180e-01 1.661070000000000046e+00 9.497519999999999740e+00 6.586389999999999745e+00 3.867309999999999803e+00 4.028830000000000133e+00 7.443979999999999819e+00 9.121159999999999712e+00 3.837320000000000064e+00 6.410149999999999793e+00 8.890309999999999491e+00 8.915279999999999205e+00 7.377279999999999838e+00 8.726399999999999935e+00 6.663269999999999804e+00 1.321989999999999998e+00 4.183019999999999960e+00 4.139190000000000147e+00 1.613939999999999930e+00 4.512809999999999988e+00 6.377779999999999561e+00 1.113680000000000003e+00 7.236600000000000144e+00 3.927979999999999805e+00 1.975340000000000096e+00 4.286050000000000360e+00 9.315400000000000347e-01 6.588779999999999859e+00 6.115689999999999849e+00 6.357639999999999958e+00 6.042600000000000193e+00 3.913580000000000059e+00 8.784700000000000841e+00 6.488480000000000025e+00 9.806440000000000268e+00 1.851960000000000051e+00 6.678740000000000343e+00 7.113550000000000040e+00 1.056780000000000053e+00 3.101210000000000022e+00 1.180279999999999996e+00 4.431000000000000050e+00 8.990729999999999222e+00 9.027100000000000124e-01 8.806369999999999365e+00 3.986209999999999809e+00 5.481830000000000425e+00 1.226660000000000084e+00 1.143180000000000085e+00 7.820660000000000167e+00 6.572549999999999670e+00 3.684309999999999974e+00 1.021609999999999907e+00 9.508219999999999672e+00 7.060260000000000424e+00 6.453269999999999840e+00 9.204319999999999169e+00
1.849000000000000088e-01 2.186620000000000008e+00 2.176460000000000061e+00 2.281299999999999994e-01 2.130079999999999973e+00 7.569099999999999717e+00 1.044058000000000064e+01 8.103229999999999933e+00 2.363780000000000214e+00 2.347400000000000042e-01 7.462769999999999904e+00 7.308169999999999611e+00 5.325510000000000410e+00 2.769989999999999952e+00 2.590110000000000134e+00 5.174559999999999604e+00 2.333200000000000163e+00 8.108340000000000103e+00 5.337970000000000326e+00 7.515520000000000422e+00 2.481780000000000097e+00 5.143989999999999618e+00 8.323669999999999902e+00 8.075400000000000134e+00 1.947270000000000056e+00 4.983089999999999797e+00 2.064610000000000056e+00 3.070699999999999985e+00 5.169130000000000003e+00 7.940990000000000215e+00 2.880900000000000016e+00 1.059598000000000084e+01 2.595769999999999911e+00 2.233490000000000197e+00 1.026737999999999928e+01 7.790350000000000108e+00 8.114890000000000825e+00 5.096400000000000041e+00 2.189480000000000093e+00 7.797399999999999665e+00 5.643580000000000041e+00 7.682240000000000180e+00 7.924120000000000275e+00 1.070617999999999981e+01 2.678669999999999884e+00 8.048049999999999926e+00 1.042758000000000074e+01 7.658629999999999605e+00 2.882670000000000066e+00 2.408619999999999983e+00 5.170139999999999958e+00 2.542060000000000208e+00 2.386639999999999873e+00 1.000329999999999941e+01 2.661459999999999937e+00 7.990330000000000155e+00 4.817940000000000111e+00 2.802470000000000017e+00 8.090040000000000120e+00 7.881000000000000505e-02 7.374229999999999841e+00 2.566279999999999895e+00 5.328730000000000189e+00 7.632299999999999862e+00 2.321959999999999802e+00 2.100000000000000087e-04 8.129030000000000200e+00 7.894440000000000346e+00 4.395719999999999850e+00 8.111299999999999955e+00 8.207700000000000884e+00 1.021855000000000047e+01 1.252800000000000025e-01 4.951439999999999841e+00 5.190360000000000085e+00 1.038447999999999993e+01 5.595049999999999635e+00 1.032324999999999982e+01 1.024827999999999939e+01 2.137799999999999978e-01 4.787490000000000023e+00 6.499999999999999702e-04 1.082667999999999964e+01 7.888000000000000567e-02 5.355979999999999741e+00 5.233019999999999783e+00 5.445630000000000415e+00 5.238780000000000214e+00 4.761770000000000280e+00 1.042885000000000062e+01 4.851219999999999644e+00 1.054428000000000054e+01 5.344159999999999577e+00 5.574679999999999858e+00 1.082437999999999967e+01 1.043435000000000024e+01 3.567670000000000119e+00 6.401019999999999932e+00 2.627310000000000034e+00 3.881489999999999885e+00 3.880030000000000090e+00 9.359769999999999257e+00 3.886810000000000098e+00 9.512719999999999843e+00 4.181930000000000369e+00 4.127640000000000420e+00 9.261350000000000193e+00 9.381050000000000111e+00 8.853109999999999147e+00 3.725490000000000190e+00 5.700450000000000017e+00 9.981769999999999143e+00 3.632909999999999862e+00 8.811669999999999447e+00 9.886799999999999145e+00 9.451280000000000570e+00 3.454819999999999780e+00 9.351779999999999760e+00 9.615579999999999572e+00 8.538900000000000379e-01 4.072110000000000340e+00 3.873289999999999900e+00 1.552280000000000104e+00 3.944199999999999928e+00 3.741519999999999957e+00 6.492869999999999919e+00 1.134430000000000049e+00 6.315570000000000128e+00 8.828300000000000036e-01 6.118500000000000050e+00 9.846799999999999997e+00 6.854540000000000077e+00 9.308640000000000470e+00 9.627200000000000202e-01 1.325139999999999985e+00 6.720720000000000027e+00 4.373240000000000016e+00 6.618859999999999744e+00 9.459590000000000387e+00 8.893290000000000362e+00 8.690580000000000638e+00 9.061170000000000613e+00 9.684870000000000090e+00 5.780730000000000146e+00 3.964690000000000047e+00 1.212590000000000057e+00 3.735970000000000013e+00 4.262769999999999726e+00 1.075180000000000025e+00 9.099119999999999209e+00 4.118030000000000079e+00 6.843479999999999563e+00 5.760880000000000223e+00 6.793750000000000178e+00 6.797250000000000014e+00 9.090439999999999188e+00 9.288050000000000139e+00 1.576729999999999965e+00 3.621340000000000003e+00 9.515150000000000219e+00 6.918299999999999450e-01 8.951719999999999899e+00 9.512320000000000775e+00 5.913730000000000153e+00 3.712219999999999853e+00 9.044520000000000337e+00 6.663990000000000080e+00 9.069150000000000489e+00 6.662370000000000125e+00 5.950470000000000148e+00 1.301299999999999901e+00 3.646360000000000046e+00 6.223690000000000389e+00 1.026735000000000042e+01 4.071480000000000210e+00 1.143010000000000081e+00 1.239950000000000108e+00 3.723279999999999923e+00 8.971519999999999939e+00 6.841759999999999842e+00 9.291689999999999117e+00 4.093320000000000292e+00 9.445299999999999807e-01 9.403010000000000090e+00 6.327980000000000160e+00 6.338020000000000209e+00 1.786929999999999907e+00 8.849650000000000460e+00 1.635450000000000070e+00 8.626379999999999271e+00 1.381820000000000048e+00 6.444309999999999761e+00 1.259349999999999969e+00 1.513819999999999943e+00 4.168610000000000149e+00 1.766890000000000072e+00 6.091400000000000148e-01 9.585330000000000794e+00 5.171149999999999913e+00 6.357409999999999783e+00 7.894120000000000026e+00 1.167459999999999942e+00 6.363649999999999807e+00 8.751400000000000290e+00 6.378269999999999662e+00 1.164840000000000098e+00 4.055760000000000254e+00 6.647619999999999862e+00 1.429009999999999891e+00 9.243290000000000006e+00 6.442459999999999631e+00 6.350430000000000241e+00 3.677550000000000097e+00 9.253310000000000812e+00 7.005869999999999820e+00 1.031190000000000051e+00 1.283390000000000031e+00 3.402559999999999807e+00 7.045000000000000151e-01 1.208749999999999991e+00 2.836879999999999846e+00 6.055889999999999773e+00 4.197230000000000238e+00 9.219889999999999475e+00 1.614079999999999959e+00 1.457179999999999920e+00 8.919040000000000745e+00 6.685620000000000118e+00 6.783489999999999576e+00 3.473700000000000010e+00 1.330600000000000005e+00 6.680340000000000167e+00 7.186429999999999652e+00 6.159089999999999954e+00 6.857409999999999783e+00 8.543049999999999145e+00 1.498820000000000041e+00 5.730920000000000236e+00 1.536049999999999915e+00 6.397890000000000299e+00 8.847800000000000109e-01 3.912920000000000176e+00 3.326680000000000081e+00 1.859939999999999927e+00 3.075499999999999901e+00 8.200929999999999609e+00 1.806999999999999940e+00 9.862420000000000186e+00 4.157409999999999606e+00 1.476320000000000077e+00 9.101710000000000633e+00 9.444860000000000255e+00 5.229420000000000179e+00 3.745629999999999793e+00 4.230959999999999610e+00 7.095760000000000289e+00 3.853089999999999904e+00 9.321920000000000428e+00 6.687890000000000335e+00 8.987149999999999750e+00 3.808310000000000084e+00 6.840390000000000192e+00 9.405559999999999476e+00 9.009399999999999409e+00 1.132770000000000055e+00 4.336099999999999954e-01 1.697920000000000096e+00 6.456600000000000117e-01 8.899999999999999578e-02 7.088689999999999714e+00 1.359839999999999938e+00 6.940360000000000085e+00 3.545700000000000074e+00 1.801180000000000003e+00 5.623700000000000365e+00 6.301359999999999850e+00 6.477000000000000313e+00 1.098309999999999897e+00 1.324149999999999938e+00 3.386229999999999851e+00 8.838500000000000245e-01 6.590709999999999624e+00