1.024690510399999965e+01 0.000000000000000000e+00 0.000000000000000000e+00 -3.391339100000000106e-02 1.038856621599999919e+01 0.000000000000000000e+00 -1.734894050000000076e+00 4.643064699999999850e-02 1.048517626900000010e+01
1.024453759999999924e+01 0.000000000000000000e+00 0.000000000000000000e+00 -3.390555600000000336e-02 1.038616598199999963e+01 0.000000000000000000e+00 -1.734493209999999896e+00 4.641992000000000340e-02 1.048275371399999933e+01
1.027955642500000089e+01 0.000000000000000000e+00 0.000000000000000000e+00 -3.402145499999999906e-02 1.042166893399999950e+01 0.000000000000000000e+00 -1.740422214999999939e+00 4.657859699999999936e-02 1.051858683100000036e+01
1.031084712000000003e+01 0.000000000000000000e+00 0.000000000000000000e+00 -3.412501500000000160e-02 1.045339221499999915e+01 0.000000000000000000e+00 -1.745720013999999987e+00 4.672038099999999833e-02 1.055060512800000083e+01
1.031440420500000066e+01 0.000000000000000000e+00 0.000000000000000000e+00 -3.413678800000000124e-02 1.045699847600000076e+01 0.000000000000000000e+00 -1.746322260999999987e+00 4.673649800000000132e-02 1.055424492600000086e+01
1.025671856199999965e+01 0.000000000000000000e+00 0.000000000000000000e+00 -3.394587000000000299e-02 1.039851534299999969e+01 0.000000000000000000e+00 -1.736555558000000055e+00 4.647511399999999793e-02 1.049521791999999998e+01
1.024969390999999952e+01 0.000000000000000000e+00 0.000000000000000000e+00 -3.392262100000000002e-02 1.039139357700000055e+01 0.000000000000000000e+00 -1.735366219999999959e+00 4.644328400000000134e-02 1.048802992399999923e+01
1.032556026500000002e+01 0.000000000000000000e+00 0.000000000000000000e+00 -3.417371000000000297e-02 1.046830876699999990e+01 0.000000000000000000e+00 -1.748211082999999944e+00 4.678704899999999722e-02 1.056566039800000034e+01
1.050061517900000041e+01 0.000000000000000000e+00 0.000000000000000000e+00 -3.475307600000000080e-02 1.064578377399999987e+01 0.000000000000000000e+00 -1.777849468999999960e+00 4.758025500000000185e-02 1.074478586100000044e+01
1.033180919700000011e+01 0.000000000000000000e+00 0.000000000000000000e+00 -3.419439199999999707e-02 1.047464408899999988e+01 0.000000000000000000e+00 -1.749269084000000030e+00 4.681536399999999820e-02 1.057205463600000073e+01
1.018556422500000025e+01 0.000000000000000000e+00 0.000000000000000000e+00 -3.371037600000000023e-02 1.032637731400000014e+01 0.000000000000000000e+00 -1.724508482999999925e+00 4.615269999999999789e-02 1.042240903199999913e+01
1.029387851000000076e+01 0.000000000000000000e+00 0.000000000000000000e+00 -3.406885600000000153e-02 1.043618901900000040e+01 0.000000000000000000e+00 -1.742847073999999941e+00 4.664349300000000115e-02 1.053324194700000049e+01
1.038350681500000050e+01 0.000000000000000000e+00 0.000000000000000000e+00 -3.436549199999999749e-02 1.052705641400000047e+01 0.000000000000000000e+00 -1.758021959999999995e+00 4.704961500000000296e-02 1.062495437799999998e+01
1.040368357800000076e+01 0.000000000000000000e+00 0.000000000000000000e+00 -3.443226900000000146e-02 1.054751211700000013e+01 0.000000000000000000e+00 -1.761438068999999995e+00 4.714104000000000211e-02 1.064560031100000081e+01
1.037944618899999938e+01 0.000000000000000000e+00 0.000000000000000000e+00 -3.435205200000000098e-02 1.052293965099999973e+01 0.000000000000000000e+00 -1.757334458999999960e+00 4.703121600000000069e-02 1.062079933000000054e+01
1.030322312999999923e+01 0.000000000000000000e+00 0.000000000000000000e+00 -3.409978300000000156e-02 1.044566282599999951e+01 0.000000000000000000e+00 -1.744429202999999928e+00 4.668583500000000192e-02 1.054280385699999911e+01
1.039349338799999956e+01 0.000000000000000000e+00 0.000000000000000000e+00 -3.439854299999999671e-02 1.053718104900000085e+01 0.000000000000000000e+00 -1.759712777000000061e+00 4.709486599999999912e-02 1.063517316899999976e+01
1.045997074199999943e+01 0.000000000000000000e+00 0.000000000000000000e+00 -3.461855800000000066e-02 1.060457743799999974e+01 0.000000000000000000e+00 -1.770967997000000071e+00 4.739608800000000288e-02 1.070319631999999999e+01
1.039310443299999953e+01 0.000000000000000000e+00 0.000000000000000000e+00 -3.439725600000000105e-02 1.053678671700000002e+01 0.000000000000000000e+00 -1.759646923999999890e+00 4.709310399999999674e-02 1.063477516899999920e+01
1.034849941000000051e+01 0.000000000000000000e+00 0.000000000000000000e+00 -3.424963000000000313e-02 1.049156503999999934e+01 0.000000000000000000e+00 -1.752094888000000017e+00 4.689099000000000045e-02 1.058913294599999944e+01
1.029092729799999972e+01 0.000000000000000000e+00 0.000000000000000000e+00 -3.405908800000000125e-02 1.043319700600000033e+01 0.000000000000000000e+00 -1.742347407000000015e+00 4.663011999999999713e-02 1.053022211000000041e+01
1.028609675999999951e+01 0.000000000000000000e+00 0.000000000000000000e+00 -3.404310099999999922e-02 1.042829968799999918e+01 0.000000000000000000e+00 -1.741529552999999897e+00 4.660823199999999944e-02 1.052527924800000036e+01
1.039204978499999932e+01 0.000000000000000000e+00 0.000000000000000000e+00 -3.439376599999999923e-02 1.053571748899999960e+01 0.000000000000000000e+00 -1.759468362000000008e+00 4.708832500000000032e-02 1.063369599700000023e+01
1.014792920000000009e+01 0.000000000000000000e+00 0.000000000000000000e+00 -3.358581900000000287e-02 1.028822199300000051e+01 0.000000000000000000e+00 -1.718136531000000078e+00 4.598216900000000329e-02 1.038389888000000028e+01
1.025659237800000056e+01 0.000000000000000000e+00 0.000000000000000000e+00 -3.394545300000000043e-02 1.039838741400000011e+01 0.000000000000000000e+00 -1.736534194000000086e+00 4.647454200000000063e-02 1.049508880099999963e+01
1.028833112799999938e+01 0.000000000000000000e+00 0.000000000000000000e+00 -3.405049599999999954e-02 1.043056494500000042e+01 0.000000000000000000e+00 -1.741907851999999979e+00 4.661835599999999968e-02 1.052756557200000032e+01
1.030720588500000012e+01 0.000000000000000000e+00 0.000000000000000000e+00 -3.411296400000000256e-02 1.044970064199999982e+01 0.000000000000000000e+00 -1.745103520000000019e+00 4.670388100000000264e-02 1.054687922399999955e+01
1.021151223600000080e+01 0.000000000000000000e+00 0.000000000000000000e+00 -3.379625399999999780e-02 1.035268404900000050e+01 0.000000000000000000e+00 -1.728901715999999977e+00 4.627027599999999907e-02 1.044896041099999984e+01
1.034098589799999957e+01 0.000000000000000000e+00 0.000000000000000000e+00 -3.422476299999999833e-02 1.048394765599999978e+01 0.000000000000000000e+00 -1.750822783000000049e+00 4.685694499999999707e-02 1.058144472300000061e+01
1.038819316700000073e+01 0.000000000000000000e+00 0.000000000000000000e+00 -3.438100200000000078e-02 1.053180755400000024e+01 0.000000000000000000e+00 -1.758815401999999972e+00 4.707084999999999742e-02 1.062974970099999972e+01
1.028455486400000041e+01 0.000000000000000000e+00 0.000000000000000000e+00 -3.403799799999999987e-02 1.042673647500000023e+01 0.000000000000000000e+00 -1.741268495999999999e+00 4.660124499999999947e-02 1.052370149799999943e+01
1.016790901100000077e+01 0.000000000000000000e+00 0.000000000000000000e+00 -3.365194400000000308e-02 1.030847802000000080e+01 0.000000000000000000e+00 -1.721519295000000005e+00 4.607270100000000063e-02 1.040434328099999917e+01
1.028557638500000060e+01 0.000000000000000000e+00 0.000000000000000000e+00 -3.404137899999999661e-02 1.042777211900000012e+01 0.000000000000000000e+00 -1.741441449000000086e+00 4.660587399999999852e-02 1.052474677300000039e+01
1.028385288600000003e+01 0.000000000000000000e+00 0.000000000000000000e+00 -3.403567500000000134e-02 1.042602479199999976e+01 0.000000000000000000e+00 -1.741149644999999913e+00 4.659806500000000101e-02 1.052298319700000029e+01
1.030810799600000038e+01 0.000000000000000000e+00 0.000000000000000000e+00 -3.411594999999999905e-02 1.045061522399999987e+01 0.000000000000000000e+00 -1.745256254999999923e+00 4.670796900000000196e-02 1.054780231099999988e+01
1.031820071900000002e+01 0.000000000000000000e+00 0.000000000000000000e+00 -3.414935300000000035e-02 1.046084747699999973e+01 0.000000000000000000e+00 -1.746965045000000050e+00 4.675370100000000168e-02 1.055812972000000016e+01
1.038463861800000032e+01 0.000000000000000000e+00 0.000000000000000000e+00 -3.436923699999999693e-02 1.052820386399999997e+01 0.000000000000000000e+00 -1.758213583999999940e+00 4.705474400000000251e-02 1.062611249899999954e+01
1.034572015400000033e+01 0.000000000000000000e+00 0.000000000000000000e+00 -3.424043200000000120e-02 1.048874736099999971e+01 0.000000000000000000e+00 -1.751624335000000032e+00 4.687839700000000220e-02 1.058628906400000069e+01
1.032567993099999981e+01 0.000000000000000000e+00 0.000000000000000000e+00 -3.417410600000000270e-02 1.046843008699999977e+01 0.000000000000000000e+00 -1.748231343999999909e+00 4.678759100000000337e-02 1.056578284699999948e+01
1.030352170899999997e+01 0.000000000000000000e+00 0.000000000000000000e+00 -3.410077100000000194e-02 1.044596553200000066e+01 0.000000000000000000e+00 -1.744479754999999965e+00 4.668718799999999752e-02 1.054310937900000056e+01
1.030928758099999953e+01 0.000000000000000000e+00 0.000000000000000000e+00 -3.411985399999999807e-02 1.045181111600000001e+01 0.000000000000000000e+00 -1.745455970000000079e+00 4.671331399999999884e-02 1.054900932500000010e+01
1.034009211200000067e+01 0.000000000000000000e+00 0.000000000000000000e+00 -3.422180500000000097e-02 1.048304151299999987e+01 0.000000000000000000e+00 -1.750671456000000070e+00 4.685289499999999857e-02 1.058053015299999977e+01
1.031190712399999931e+01 0.000000000000000000e+00 0.000000000000000000e+00 -3.412852400000000036e-02 1.045446687399999952e+01 0.000000000000000000e+00 -1.745899482000000003e+00 4.672518400000000294e-02 1.055168978000000024e+01
1.033127370000000056e+01 0.000000000000000000e+00 0.000000000000000000e+00 -3.419261999999999996e-02 1.047410118800000056e+01 0.000000000000000000e+00 -1.749178418999999929e+00 4.681293699999999891e-02 1.057150668699999940e+01
1.027572953299999980e+01 0.000000000000000000e+00 0.000000000000000000e+00 -3.400878899999999760e-02 1.041778913599999967e+01 0.000000000000000000e+00 -1.739774288000000002e+00 4.656125600000000225e-02 1.051467095199999946e+01
1.070562291599999938e+01 0.000000000000000000e+00 0.000000000000000000e+00 -3.543157400000000040e-02 1.085362569700000002e+01 0.000000000000000000e+00 -1.812559140000000069e+00 4.850918399999999686e-02 1.095456064100000049e+01
1.033062653600000047e+01 0.000000000000000000e+00 0.000000000000000000e+00 -3.419047800000000331e-02 1.047344507699999916e+01 0.000000000000000000e+00 -1.749068848999999926e+00 4.681000500000000175e-02 1.057084447399999938e+01
1.042400860000000051e+01 0.000000000000000000e+00 0.000000000000000000e+00 -3.449953699999999679e-02 1.056811812699999997e+01 0.000000000000000000e+00 -1.764879279999999939e+00 4.723313600000000195e-02 1.066639795100000043e+01
1.041739093500000024e+01 0.000000000000000000e+00 0.000000000000000000e+00 -3.447763499999999953e-02 1.056140897400000078e+01 0.000000000000000000e+00 -1.763758849000000017e+00 4.720315099999999875e-02 1.065962640499999914e+01
1.026350857599999955e+01 0.000000000000000000e+00 0.000000000000000000e+00 -3.396834299999999807e-02 1.040539922700000020e+01 0.000000000000000000e+00 -1.737705169000000049e+00 4.650588099999999891e-02 1.050216582100000018e+01
1.036944848499999949e+01 0.000000000000000000e+00 0.000000000000000000e+00 -3.431896400000000041e-02 1.051280373099999998e+01 0.000000000000000000e+00 -1.755641757000000025e+00 4.698591399999999668e-02 1.061056914999999989e+01
1.033937649199999953e+01 0.000000000000000000e+00 0.000000000000000000e+00 -3.421943699999999838e-02 1.048231600000000086e+01 0.000000000000000000e+00 -1.750550295999999895e+00 4.684965199999999858e-02 1.057979789300000029e+01
1.032182765599999996e+01 0.000000000000000000e+00 0.000000000000000000e+00 -3.416135700000000330e-02 1.046452455500000056e+01 0.000000000000000000e+00 -1.747579117999999987e+00 4.677013499999999740e-02 1.056184099400000065e+01
1.031338047600000074e+01 0.000000000000000000e+00 0.000000000000000000e+00 -3.413340000000000124e-02 1.045596059500000052e+01 0.000000000000000000e+00 -1.746148934000000041e+00 4.673186000000000007e-02 1.055319739199999951e+01
1.034601170800000070e+01 0.000000000000000000e+00 0.000000000000000000e+00 -3.424139699999999981e-02 1.048904294599999965e+01 0.000000000000000000e+00 -1.751673698000000057e+00 4.687971800000000078e-02 1.058658739800000070e+01
1.038945777800000059e+01 0.000000000000000000e+00 0.000000000000000000e+00 -3.438518699999999761e-02 1.053308964800000069e+01 0.000000000000000000e+00 -1.759029511999999906e+00 4.707657999999999981e-02 1.063104371899999911e+01
1.030326984999999951e+01 0.000000000000000000e+00 0.000000000000000000e+00 -3.409993800000000325e-02 1.044571019199999995e+01 0.000000000000000000e+00 -1.744437113000000039e+00 4.668604700000000135e-02 1.054285166400000051e+01
1.024168564900000078e+01 0.000000000000000000e+00 0.000000000000000000e+00 -3.389611700000000338e-02 1.038327460300000027e+01 0.000000000000000000e+00 -1.734010349000000062e+00 4.640699699999999844e-02 1.047983544599999917e+01
1.039434849599999922e+01 0.000000000000000000e+00 0.000000000000000000e+00 -3.440137399999999845e-02 1.053804797999999998e+01 0.000000000000000000e+00 -1.759857554999999962e+00 4.709874099999999952e-02 1.063604816099999972e+01
1.025884922800000076e+01 0.000000000000000000e+00 0.000000000000000000e+00 -3.395292200000000343e-02 1.040067546500000084e+01 0.000000000000000000e+00 -1.736916298999999997e+00 4.648476800000000270e-02 1.049739813000000055e+01
1.027921540800000066e+01 0.000000000000000000e+00 0.000000000000000000e+00 -3.402032599999999657e-02 1.042132320300000003e+01 0.000000000000000000e+00 -1.740364478000000048e+00 4.657705100000000126e-02 1.051823788399999948e+01
1.031325011999999930e+01 0.000000000000000000e+00 0.000000000000000000e+00 -3.413296799999999964e-02 1.045582843599999912e+01 0.000000000000000000e+00 -1.746126864000000056e+00 4.673126899999999889e-02 1.055306400499999953e+01
1.026898665300000069e+01 0.000000000000000000e+00 0.000000000000000000e+00 -3.398647300000000315e-02 1.041095303700000052e+01 0.000000000000000000e+00 -1.738632656999999915e+00 4.653070299999999965e-02 1.050777128000000005e+01
1.055779270500000067e+01 0.000000000000000000e+00 0.000000000000000000e+00 -3.494231200000000315e-02 1.070375176599999989e+01 0.000000000000000000e+00 -1.787530142999999905e+00 4.783933700000000261e-02 1.080329293600000007e+01
1.024961043999999966e+01 0.000000000000000000e+00 0.000000000000000000e+00 -3.392234499999999958e-02 1.039130895299999935e+01 0.000000000000000000e+00 -1.735352087999999959e+00 4.644290599999999908e-02 1.048794451200000033e+01
1.024897615799999961e+01 0.000000000000000000e+00 0.000000000000000000e+00 -3.392024600000000112e-02 1.039066590100000020e+01 0.000000000000000000e+00 -1.735244698000000030e+00 4.644003199999999915e-02 1.048729548100000031e+01
1.032661209199999952e+01 0.000000000000000000e+00 0.000000000000000000e+00 -3.417719200000000207e-02 1.046937513499999994e+01 0.000000000000000000e+00 -1.748389167000000022e+00 4.679181500000000049e-02 1.056673668300000024e+01
1.049363887300000009e+01 0.000000000000000000e+00 0.000000000000000000e+00 -3.472998699999999689e-02 1.063871102200000074e+01 0.000000000000000000e+00 -1.776668316999999941e+00 4.754864400000000102e-02 1.073764733500000013e+01
1.033104328399999972e+01 0.000000000000000000e+00 0.000000000000000000e+00 -3.419185699999999911e-02 1.047386758700000087e+01 0.000000000000000000e+00 -1.749139408000000007e+00 4.681189300000000025e-02 1.057127091399999941e+01
1.018729019300000083e+01 0.000000000000000000e+00 0.000000000000000000e+00 -3.371608899999999770e-02 1.032812714299999968e+01 0.000000000000000000e+00 -1.724800705000000045e+00 4.616052100000000297e-02 1.042417513400000040e+01
1.020975623700000057e+01 0.000000000000000000e+00 0.000000000000000000e+00 -3.379044300000000334e-02 1.035090377500000081e+01 0.000000000000000000e+00 -1.728604409999999980e+00 4.626231900000000313e-02 1.044716357999999978e+01
1.036856360800000054e+01 0.000000000000000000e+00 0.000000000000000000e+00 -3.431603500000000168e-02 1.051190662099999962e+01 0.000000000000000000e+00 -1.755491938999999890e+00 4.698190499999999742e-02 1.060966369700000023e+01
1.026177115099999959e+01 0.000000000000000000e+00 0.000000000000000000e+00 -3.396259199999999978e-02 1.040363778300000064e+01 0.000000000000000000e+00 -1.737411006999999952e+00 4.649800800000000039e-02 1.050038799600000061e+01
1.020237268300000011e+01 0.000000000000000000e+00 0.000000000000000000e+00 -3.376600600000000119e-02 1.034341814499999934e+01 0.000000000000000000e+00 -1.727354306999999922e+00 4.622886300000000198e-02 1.043960833599999916e+01
1.028624657199999959e+01 0.000000000000000000e+00 0.000000000000000000e+00 -3.404359700000000183e-02 1.042845157100000009e+01 0.000000000000000000e+00 -1.741554918000000063e+00 4.660891100000000287e-02 1.052543254399999917e+01
1.026759371800000054e+01 0.000000000000000000e+00 0.000000000000000000e+00 -3.398186300000000104e-02 1.040954084600000051e+01 0.000000000000000000e+00 -1.738396819999999954e+00 4.652439099999999828e-02 1.050634595600000054e+01
1.030252457199999938e+01 0.000000000000000000e+00 0.000000000000000000e+00 -3.409747099999999725e-02 1.044495461100000000e+01 0.000000000000000000e+00 -1.744310931000000009e+00 4.668267000000000250e-02 1.054208905600000001e+01
1.041586782100000086e+01 0.000000000000000000e+00 0.000000000000000000e+00 -3.447259400000000223e-02 1.055986480400000005e+01 0.000000000000000000e+00 -1.763500972000000111e+00 4.719624900000000262e-02 1.065806787400000033e+01
1.037086826600000045e+01 0.000000000000000000e+00 0.000000000000000000e+00 -3.432366299999999731e-02 1.051424313999999960e+01 0.000000000000000000e+00 -1.755882138999999897e+00 4.699234800000000323e-02 1.061202194500000040e+01
1.018841844499999993e+01 0.000000000000000000e+00 0.000000000000000000e+00 -3.371982300000000293e-02 1.032927099199999965e+01 0.000000000000000000e+00 -1.724991728000000002e+00 4.616563299999999759e-02 1.042532961999999941e+01
1.040081658999999981e+01 0.000000000000000000e+00 0.000000000000000000e+00 -3.442278000000000004e-02 1.054460549300000061e+01 0.000000000000000000e+00 -1.760952662000000002e+00 4.712804899999999825e-02 1.064266665799999956e+01
1.026716843700000048e+01 0.000000000000000000e+00 0.000000000000000000e+00 -3.398045499999999969e-02 1.040910968500000067e+01 0.000000000000000000e+00 -1.738324815999999995e+00 4.652246399999999948e-02 1.050591078499999931e+01
1.036672527400000021e+01 0.000000000000000000e+00 0.000000000000000000e+00 -3.430995099999999826e-02 1.051004287199999965e+01 0.000000000000000000e+00 -1.755180693000000014e+00 4.697357499999999658e-02 1.060778261599999972e+01
1.020830892100000042e+01 0.000000000000000000e+00 0.000000000000000000e+00 -3.378565299999999882e-02 1.034943645000000068e+01 0.000000000000000000e+00 -1.728359366000000064e+00 4.625576099999999941e-02 1.044568261000000042e+01
1.035508573799999965e+01 0.000000000000000000e+00 0.000000000000000000e+00 -3.427142899999999909e-02 1.049824242300000066e+01 0.000000000000000000e+00 -1.753210013999999983e+00 4.692083400000000154e-02 1.059587242599999968e+01
1.024017561700000023e+01 0.000000000000000000e+00 0.000000000000000000e+00 -3.389111899999999733e-02 1.038174369500000083e+01 0.000000000000000000e+00 -1.733754687000000017e+00 4.640015499999999848e-02 1.047829030099999947e+01
1.053353450600000052e+01 0.000000000000000000e+00 0.000000000000000000e+00 -3.486202699999999682e-02 1.067915820400000015e+01 0.000000000000000000e+00 -1.783423009999999920e+00 4.772941900000000209e-02 1.077847066100000006e+01
1.024327416400000068e+01 0.000000000000000000e+00 0.000000000000000000e+00 -3.390137399999999801e-02 1.038488507900000002e+01 0.000000000000000000e+00 -1.734279298999999996e+00 4.641419499999999837e-02 1.048146089900000000e+01
1.043726905399999971e+01 0.000000000000000000e+00 0.000000000000000000e+00 -3.454342400000000313e-02 1.058156190400000085e+01 0.000000000000000000e+00 -1.767124394999999959e+00 4.729322200000000281e-02 1.067996675000000018e+01
1.024045290099999939e+01 0.000000000000000000e+00 0.000000000000000000e+00 -3.389203699999999986e-02 1.038202481199999916e+01 0.000000000000000000e+00 -1.733801633999999980e+00 4.640141099999999658e-02 1.047857403299999923e+01
1.044411798500000010e+01 0.000000000000000000e+00 0.000000000000000000e+00 -3.456609199999999965e-02 1.058850552000000000e+01 0.000000000000000000e+00 -1.768283980999999949e+00 4.732425600000000204e-02 1.068697493900000062e+01
1.035202845399999916e+01 0.000000000000000000e+00 0.000000000000000000e+00 -3.426131000000000315e-02 1.049514287200000062e+01 0.000000000000000000e+00 -1.752692388000000046e+00 4.690698100000000037e-02 1.059274405100000038e+01
1.025332632199999949e+01 0.000000000000000000e+00 0.000000000000000000e+00 -3.393464300000000045e-02 1.039507620600000060e+01 0.000000000000000000e+00 -1.735981221000000074e+00 4.645974299999999779e-02 1.049174679999999960e+01
1.029629350000000088e+01 0.000000000000000000e+00 0.000000000000000000e+00 -3.407684799999999986e-02 1.043863739500000065e+01 0.000000000000000000e+00 -1.743255954000000107e+00 4.665443500000000104e-02 1.053571309300000003e+01
1.033430416200000046e+01 0.000000000000000000e+00 0.000000000000000000e+00 -3.420264900000000163e-02 1.047717354599999950e+01 0.000000000000000000e+00 -1.749691504000000064e+00 4.682666900000000132e-02 1.057460761599999977e+01
1.037754986500000065e+01 0.000000000000000000e+00 0.000000000000000000e+00 -3.434577600000000147e-02 1.052101711100000081e+01 0.000000000000000000e+00 -1.757013393999999895e+00 4.702262299999999950e-02 1.061885891100000023e+01
1.028503752099999957e+01 0.000000000000000000e+00 0.000000000000000000e+00 -3.403959499999999888e-02 1.042722580500000085e+01 0.000000000000000000e+00 -1.741350213999999896e+00 4.660343200000000019e-02 1.052419537900000002e+01
1.024282636799999935e+01 0.000000000000000000e+00 0.000000000000000000e+00 -3.389989200000000091e-02 1.038443109299999989e+01 0.000000000000000000e+00 -1.734203482999999935e+00 4.641216599999999776e-02 1.048100269100000048e+01
1.028838331100000048e+01 0.000000000000000000e+00 0.000000000000000000e+00 -3.405066899999999869e-02 1.043061785000000086e+01 0.000000000000000000e+00 -1.741916687000000019e+00 4.661859299999999984e-02 1.052761896800000052e+01
1.044920061999999916e+01 0.000000000000000000e+00 0.000000000000000000e+00 -3.458291299999999985e-02 1.059365842200000074e+01 0.000000000000000000e+00 -1.769144516999999972e+00 4.734728600000000232e-02 1.069217576099999967e+01
