4.508770000000000167e+00 3.010549999999999837e+00 2.489590000000000192e+00 3.728889999999999816e+00 2.961079999999999934e+00 7.824699999999999989e+00 4.648480000000000167e+00 8.546730000000000160e+00 2.640320000000000000e+00 3.875119999999999898e+00 8.151569999999999538e+00 8.060480000000000089e+00 -4.249600000000000044e-01 3.093560000000000088e+00 2.554879999999999818e+00 8.936859999999999360e+00 3.020010000000000083e+00 7.658299999999999663e+00 -4.343899999999999983e-01 8.277730000000000032e+00 2.779990000000000183e+00 -1.277640000000000109e+00 8.356410000000000338e+00 7.939770000000000216e+00 1.781179999999999986e+00 4.208299999999999819e-01 3.107509999999999994e+00 8.421499999999999542e-01 5.625499999999999945e-01 8.358890000000000597e+00 1.852149999999999963e+00 5.728069999999999773e+00 3.188279999999999781e+00 9.607700000000000129e-01 5.563329999999999664e+00 8.411049999999999471e+00 6.869220000000000326e+00 4.365399999999999836e-01 3.121989999999999821e+00 6.116410000000000124e+00 5.078899999999999526e-01 8.588810000000000500e+00 6.983699999999999797e+00 5.723099999999999632e+00 3.039709999999999912e+00 6.239720000000000155e+00 5.715130000000000265e+00 8.410780000000000811e+00 2.065690000000000026e+00 2.693579999999999863e+00 2.986099999999999866e-01 1.392930000000000001e+00 2.749620000000000175e+00 5.643900000000000361e+00 2.075039999999999996e+00 7.830569999999999808e+00 3.261399999999999855e-01 1.422209999999999974e+00 7.982420000000000293e+00 5.798650000000000304e+00 7.541699999999999626e+00 2.690069999999999961e+00 4.788200000000000234e-01 6.410689999999999777e+00 2.674960000000000004e+00 5.652009999999999756e+00 7.706529999999999880e+00 7.896620000000000417e+00 3.821800000000000197e-01 6.586590000000000167e+00 7.840270000000000294e+00 5.780540000000000234e+00 4.257189999999999586e+00 7.109999999999999654e-02 5.538649999999999629e+00 3.433460000000000178e+00 1.040329999999999977e+01 1.054754999999999932e+01 4.374950000000000117e+00 5.216899999999999871e+00 5.362190000000000012e+00 5.200300000000000367e+00 5.273920000000000385e+00 6.893000000000000516e-02 9.354620000000000601e+00 1.253900000000000015e-01 5.413409999999999833e+00 8.458460000000000534e+00 7.267999999999999461e-02 1.045514999999999972e+01 -8.376200000000000312e-01 5.042600000000000193e+00 5.277160000000000295e+00 1.282399999999999929e-01 5.298580000000000290e+00 7.278999999999999360e-02 3.435810000000000031e+00 4.450549999999999784e+00 3.547460000000000058e+00 2.671839999999999993e+00 4.479070000000000107e+00 8.817050000000000054e+00 3.600200000000000067e+00 9.939059999999999562e+00 3.527210000000000178e+00 2.597170000000000201e+00 9.670500000000000540e+00 8.665490000000000137e+00 8.895659999999999457e+00 4.524750000000000050e+00 3.336430000000000007e+00 7.969929999999999737e+00 4.560609999999999609e+00 8.469210000000000349e+00 8.672719999999999985e+00 9.935050000000000381e+00 3.190370000000000150e+00 2.884999999999999787e+00 2.027359999999999829e+00 2.329649999999999999e+00 2.120649999999999924e+00 1.875110000000000054e+00 7.551560000000000272e+00 3.124649999999999928e+00 7.052109999999999879e+00 2.165630000000000166e+00 2.094770000000000021e+00 7.081240000000000201e+00 7.633539999999999992e+00 8.135970000000000368e+00 2.066920000000000091e+00 2.502060000000000173e+00 7.091890000000000249e+00 2.096010000000000151e+00 7.674459999999999837e+00 8.310800000000000409e+00 7.035820000000000185e+00 2.095810000000000173e+00 7.407530000000000392e+00 7.211509999999999643e+00 7.581100000000000172e+00 2.498060000000000169e+00 9.458800000000000541e-01 5.051249999999999574e+00 1.805260000000000087e+00 1.322410000000000085e+00 1.048094999999999999e+01 2.796800000000000175e+00 6.523970000000000269e+00 5.113949999999999996e+00 1.641820000000000057e+00 6.449659999999999727e+00 1.012865000000000038e+01 7.517649999999999721e+00 9.856500000000000261e-01 5.049430000000000085e+00 6.757329999999999615e+00 9.613099999999999978e-01 1.047794999999999987e+01 7.871139999999999581e+00 6.413870000000000182e+00 4.849389999999999645e+00 6.928379999999999761e+00 6.457410000000000316e+00 1.014555000000000007e+01 3.780289999999999928e+00 3.884290000000000020e+00 7.977899999999999991e-01 2.958130000000000148e+00 3.837730000000000086e+00 5.921800000000000175e+00 4.100990000000000357e+00 9.039120000000000488e+00 8.178499999999999659e-01 3.232139999999999791e+00 8.846370000000000289e+00 5.967699999999999783e+00 9.248680000000000234e+00 3.897759999999999891e+00 4.168799999999999728e-01 8.257540000000000546e+00 3.534110000000000085e+00 5.821310000000000429e+00 9.353699999999999903e+00 9.036590000000000344e+00 6.663200000000000234e-01 8.269099999999999895e+00 9.224520000000000053e+00 6.206610000000000404e+00 3.477000000000000229e-02 1.870300000000000074e+00 4.255130000000000301e+00 -6.016700000000000381e-01 1.674800000000000066e+00 9.365919999999999135e+00 2.084499999999999964e-01 6.742390000000000327e+00 3.963119999999999976e+00 -7.198700000000000099e-01 6.746889999999999610e+00 9.118029999999999191e+00 5.285379999999999967e+00 1.686579999999999968e+00 4.098819999999999908e+00 4.380869999999999820e+00 1.468650000000000011e+00 9.227550000000000807e+00 5.422920000000000407e+00 6.753420000000000201e+00 4.086109999999999687e+00 4.565540000000000376e+00 6.617289999999999672e+00 9.418820000000000192e+00 1.136190000000000033e+00 4.299159999999999648e+00 1.649250000000000105e+00 1.237599999999999950e-01 4.233209999999999695e+00 6.927769999999999762e+00 1.073390000000000066e+00 9.305199999999999250e+00 1.745730000000000004e+00 3.507600000000000162e-01 9.367240000000000677e+00 7.003359999999999808e+00 6.488299999999999734e+00 4.266149999999999665e+00 1.593760000000000066e+00 5.336159999999999570e+00 4.087279999999999802e+00 6.815459999999999852e+00 6.263650000000000162e+00 9.513389999999999347e+00 1.753789999999999960e+00 5.255560000000000009e+00 9.590749999999999886e+00 7.206760000000000055e+00 7.241199999999999859e-01 4.172699999999999854e+00 4.188159999999999883e+00 -2.646600000000000064e-01 4.169439999999999813e+00 9.584509999999999863e+00 6.549000000000000377e-01 9.216910000000000380e+00 4.374290000000000234e+00 -4.414699999999999736e-01 9.263569999999999638e+00 9.751229999999999620e+00 5.836319999999999730e+00 4.233999999999999986e+00 4.267559999999999576e+00 4.959279999999999688e+00 3.928999999999999826e+00 9.689949999999999619e+00 5.709310000000000329e+00 9.235590000000000188e+00 4.447510000000000296e+00 4.919599999999999973e+00 9.256370000000000431e+00 9.569530000000000314e+00 4.264299999999999757e-01 1.694749999999999979e+00 1.282810000000000006e+00 -1.074500000000000038e-01 1.470679999999999987e+00 6.802710000000000257e+00 5.800400000000000000e-01 6.799599999999999866e+00 1.365029999999999966e+00 -1.503899999999999959e-01 6.530750000000000277e+00 6.695669999999999789e+00 5.933189999999999742e+00 1.542939999999999978e+00 1.486709999999999976e+00 4.918890000000000207e+00 1.624219999999999997e+00 6.596090000000000231e+00 5.934009999999999785e+00 6.679920000000000080e+00 1.426790000000000003e+00 5.128079999999999750e+00 6.867750000000000021e+00 6.835250000000000270e+00
4.806689999999999685e+00 2.938670000000000115e+00 2.623450000000000060e+00 3.682300000000000129e+00 2.878559999999999786e+00 8.033659999999999357e+00 4.691110000000000113e+00 8.406109999999999971e+00 2.683330000000000215e+00 4.074519999999999698e+00 8.208830000000000737e+00 7.997810000000000308e+00 9.857659999999999201e+00 3.092449999999999921e+00 2.521349999999999980e+00 -1.118619999999999948e+00 3.049119999999999830e+00 7.998579999999999579e+00 9.747590000000000643e+00 8.264870000000000161e+00 2.548189999999999955e+00 8.851580000000000226e+00 8.514889999999999404e+00 7.977170000000000094e+00 1.746899999999999897e+00 3.447700000000000209e-01 3.227850000000000108e+00 9.465200000000000280e-01 2.900200000000000000e-01 8.275769999999999627e+00 1.931650000000000089e+00 5.693889999999999674e+00 3.120410000000000128e+00 9.531199999999999672e-01 5.991869999999999585e+00 8.201539999999999608e+00 6.952880000000000393e+00 3.905600000000000183e-01 3.064259999999999984e+00 6.212839999999999918e+00 3.113600000000000256e-01 8.506529999999999703e+00 6.927699999999999747e+00 5.717850000000000321e+00 3.081379999999999786e+00 6.161469999999999558e+00 5.638709999999999667e+00 8.692709999999999937e+00 2.537199999999999900e+00 2.498670000000000169e+00 6.884700000000000264e-01 1.301350000000000007e+00 2.868860000000000188e+00 5.596020000000000216e+00 2.194630000000000081e+00 7.753169999999999895e+00 4.479600000000000248e-01 1.250089999999999923e+00 8.143689999999999429e+00 5.753459999999999575e+00 7.362700000000000244e+00 2.852640000000000065e+00 4.372599999999999820e-01 6.723090000000000011e+00 2.666059999999999874e+00 5.903780000000000250e+00 7.471829999999999750e+00 7.787620000000000431e+00 5.397999999999999465e-01 6.465419999999999945e+00 7.945000000000000284e+00 5.836430000000000007e+00 4.116640000000000299e+00 1.594299999999999884e-01 5.272840000000000416e+00 3.438470000000000137e+00 1.129999999999999928e-02 1.043382000000000076e+01 4.219109999999999694e+00 5.107840000000000380e+00 5.083549999999999791e+00 3.100119999999999987e+00 5.278039999999999843e+00 1.054421999999999926e+01 9.432620000000000005e+00 2.429800000000000015e-01 5.187560000000000393e+00 1.504999999999999949e-01 1.045306000000000068e+01 2.649999999999999925e-02 9.440369999999999706e+00 5.462159999999999904e+00 5.044179999999999886e+00 -1.691310000000000091e+00 5.028439999999999799e+00 1.053331999999999979e+01 3.423259999999999970e+00 4.479020000000000223e+00 3.363680000000000003e+00 2.510229999999999961e+00 4.557430000000000092e+00 8.461949999999999861e+00 3.351319999999999855e+00 9.837590000000000501e+00 3.414109999999999978e+00 2.792219999999999924e+00 9.956089999999999662e+00 8.566710000000000491e+00 8.588150000000000617e+00 4.523570000000000313e+00 3.292510000000000048e+00 7.619989999999999597e+00 4.346180000000000376e+00 8.634800000000000253e+00 8.622609999999999886e+00 9.491289999999999338e+00 3.534549999999999859e+00 2.992649999999999810e+00 2.165410000000000057e+00 2.530959999999999877e+00 1.722869999999999902e+00 2.202259999999999884e+00 7.828640000000000043e+00 2.905050000000000132e+00 7.312160000000000437e+00 2.523870000000000058e+00 1.951359999999999983e+00 7.521829999999999572e+00 7.611239999999999561e+00 8.129749999999999588e+00 1.817690000000000028e+00 2.283920000000000172e+00 7.431400000000000006e+00 1.873080000000000078e+00 7.593910000000000160e+00 8.388680000000000803e+00 6.927100000000000257e+00 2.193620000000000125e+00 7.269219999999999793e+00 7.283310000000000173e+00 7.752880000000000216e+00 2.349839999999999929e+00 1.190639999999999921e+00 5.007109999999999950e+00 1.537320000000000020e+00 8.811999999999999833e-01 1.042652000000000001e+01 2.533549999999999969e+00 6.197330000000000005e+00 5.063760000000000261e+00 1.898220000000000018e+00 6.786830000000000140e+00 9.936270000000000380e+00 7.649320000000000341e+00 1.115040000000000031e+00 4.703280000000000349e+00 6.732980000000000409e+00 1.043029999999999902e+00 1.020622000000000007e+01 7.638989999999999725e+00 6.511930000000000440e+00 4.964629999999999654e+00 6.580070000000000086e+00 6.053740000000000343e+00 1.053561999999999976e+01 4.069049999999999834e+00 3.719700000000000006e+00 7.750899999999999457e-01 3.103110000000000035e+00 3.476080000000000059e+00 5.956710000000000171e+00 4.022599999999999731e+00 9.087160000000000792e+00 8.560499999999999776e-01 3.227079999999999949e+00 9.090980000000000061e+00 5.976180000000000270e+00 9.340619999999999479e+00 3.446829999999999838e+00 7.119499999999999718e-01 8.319539999999999935e+00 4.157300000000000217e+00 5.931939999999999991e+00 9.394690000000000651e+00 8.598649999999999238e+00 5.913399999999999768e-01 8.085969999999999658e+00 9.374900000000000233e+00 6.013849999999999696e+00 -1.325999999999999922e-02 1.489849999999999897e+00 3.913320000000000132e+00 -6.549500000000000322e-01 1.202760000000000051e+00 9.183749999999999858e+00 1.746000000000000052e-01 6.948929999999999829e+00 4.038429999999999964e+00 -6.343999999999999639e-01 6.745099999999999874e+00 9.342349999999999710e+00 5.381339999999999790e+00 1.598479999999999901e+00 4.292220000000000368e+00 4.465130000000000265e+00 1.629219999999999891e+00 9.553069999999999951e+00 5.335639999999999716e+00 6.861010000000000275e+00 4.074209999999999887e+00 4.474359999999999893e+00 6.908929999999999794e+00 9.387740000000000862e+00 1.183489999999999931e+00 4.045589999999999797e+00 1.486399999999999944e+00 3.609899999999999776e-01 4.455280000000000129e+00 6.850290000000000212e+00 1.068429999999999991e+00 9.249919999999999476e+00 1.614829999999999988e+00 2.311699999999999866e-01 9.771599999999999397e+00 6.579089999999999883e+00 6.175589999999999691e+00 4.250370000000000203e+00 1.979559999999999986e+00 5.493280000000000385e+00 4.022280000000000300e+00 7.204139999999999766e+00 6.393320000000000114e+00 9.189489999999999270e+00 1.579280000000000017e+00 5.401930000000000121e+00 9.492179999999999396e+00 7.147439999999999571e+00 8.568099999999999605e-01 4.197429999999999772e+00 4.103299999999999947e+00 -7.595000000000000362e-02 4.147210000000000285e+00 9.624990000000000379e+00 4.620900000000000007e-01 9.360670000000000712e+00 4.180039999999999978e+00 -1.857300000000000062e-01 9.163719999999999644e+00 9.679159999999999542e+00 6.009529999999999816e+00 4.076450000000000351e+00 4.231029999999999625e+00 4.708059999999999690e+00 3.978380000000000027e+00 9.821020000000000749e+00 5.661609999999999587e+00 9.297370000000000800e+00 4.410619999999999763e+00 5.193399999999999572e+00 9.328670000000000684e+00 9.704010000000000247e+00 8.959000000000000297e-01 1.075409999999999977e+00 1.316400000000000015e+00 -3.931000000000000050e-01 1.865699999999999914e+00 6.421859999999999680e+00 5.766900000000000359e-01 6.485289999999999999e+00 1.464849999999999985e+00 -3.629600000000000048e-01 7.199069999999999858e+00 6.732199999999999740e+00 5.522960000000000313e+00 1.585439999999999960e+00 1.522240000000000038e+00 5.089199999999999946e+00 1.661899999999999933e+00 6.679820000000000313e+00 5.728609999999999758e+00 6.833549999999999791e+00 1.510380000000000056e+00 4.872880000000000322e+00 6.679929999999999701e+00 6.999959999999999738e+00
4.665490000000000137e+00 2.880500000000000060e+00 2.707650000000000112e+00 3.777210000000000178e+00 3.005799999999999805e+00 7.851049999999999862e+00 4.809989999999999988e+00 8.251749999999999474e+00 2.540220000000000145e+00 3.830020000000000202e+00 8.184620000000000672e+00 7.871749999999999581e+00 -3.490900000000000114e-01 3.066930000000000156e+00 2.545549999999999979e+00 -1.238229999999999942e+00 3.124319999999999986e+00 7.813349999999999795e+00 9.748430000000000817e+00 8.131669999999999732e+00 2.526219999999999910e+00 8.734439999999999316e+00 8.607870000000000132e+00 7.901040000000000063e+00 1.786880000000000024e+00 3.657500000000000195e-01 3.044880000000000031e+00 8.565800000000000081e-01 4.716899999999999982e-01 8.293870000000000076e+00 1.894640000000000102e+00 5.763950000000000351e+00 3.087309999999999999e+00 6.936299999999999688e-01 5.786209999999999631e+00 8.366659999999999542e+00 7.100730000000000430e+00 3.243199999999999972e-01 3.033729999999999816e+00 5.999290000000000234e+00 4.779700000000000060e-01 8.251239999999999242e+00 6.835309999999999775e+00 5.543619999999999770e+00 3.104140000000000121e+00 6.084080000000000155e+00 5.496179999999999843e+00 8.309010000000000673e+00 2.200219999999999843e+00 2.693779999999999841e+00 5.528499999999999526e-01 1.455950000000000077e+00 2.524690000000000101e+00 5.590360000000000440e+00 2.132890000000000175e+00 7.970699999999999896e+00 3.935500000000000109e-01 1.365019999999999900e+00 7.866349999999999731e+00 5.774829999999999686e+00 7.295689999999999564e+00 2.765559999999999796e+00 4.033700000000000063e-01 6.582169999999999632e+00 2.558539999999999814e+00 5.648089999999999833e+00 7.348519999999999719e+00 7.615219999999999878e+00 3.190299999999999803e-01 6.482240000000000002e+00 7.813220000000000276e+00 5.686309999999999754e+00 4.146010000000000417e+00 1.030047000000000068e+01 5.129739999999999966e+00 3.253350000000000186e+00 1.361600000000000033e-01 1.033392000000000088e+01 4.322510000000000296e+00 5.017739999999999867e+00 5.443909999999999805e+00 3.128190000000000026e+00 5.241270000000000095e+00 1.046502000000000088e+01 9.390240000000000364e+00 3.071000000000000119e-02 5.139999999999999680e+00 8.394420000000000215e+00 8.219999999999999876e-03 1.049102000000000068e+01 -7.500599999999999490e-01 5.278459999999999930e+00 5.230970000000000120e+00 1.022852999999999923e+01 5.149969999999999715e+00 1.407599999999999962e-01 3.431500000000000217e+00 4.342649999999999899e+00 3.634339999999999904e+00 2.316819999999999879e+00 4.505700000000000038e+00 8.792999999999999261e+00 3.435470000000000024e+00 9.675250000000000128e+00 3.283199999999999896e+00 2.637059999999999960e+00 9.911020000000000607e+00 8.482939999999999259e+00 8.710089999999999222e+00 4.546520000000000117e+00 3.135590000000000099e+00 7.831400000000000361e+00 4.716420000000000279e+00 8.706450000000000244e+00 8.845969999999999445e+00 9.756700000000000372e+00 3.333050000000000068e+00 2.986180000000000057e+00 2.039909999999999890e+00 2.395280000000000076e+00 2.098230000000000040e+00 2.082619999999999916e+00 7.437090000000000423e+00 3.065150000000000041e+00 7.198489999999999611e+00 2.221330000000000027e+00 2.090289999999999981e+00 7.267909999999999648e+00 7.887260000000000382e+00 8.032799999999999940e+00 1.876470000000000082e+00 2.159520000000000106e+00 7.318679999999999630e+00 2.033959999999999990e+00 7.569289999999999630e+00 7.888720000000000176e+00 7.200490000000000279e+00 2.258160000000000167e+00 7.293239999999999945e+00 7.034209999999999852e+00 7.618619999999999948e+00 2.589949999999999974e+00 1.153029999999999999e+00 4.874220000000000219e+00 1.677210000000000090e+00 1.272720000000000073e+00 1.016812000000000005e+01 2.502520000000000078e+00 6.190330000000000332e+00 5.286889999999999645e+00 1.364290000000000003e+00 6.274779999999999802e+00 1.026082000000000072e+01 7.693629999999999747e+00 9.798999999999999932e-01 4.932339999999999947e+00 6.746579999999999799e+00 9.117600000000000149e-01 1.011881999999999948e+01 7.531620000000000203e+00 6.146029999999999660e+00 4.956559999999999633e+00 8.509890000000000398e+00 6.004039999999999822e+00 6.597999999999999698e-02 3.880149999999999988e+00 3.785829999999999806e+00 9.241800000000000015e-01 3.124420000000000197e+00 3.586530000000000218e+00 5.951880000000000059e+00 3.848790000000000155e+00 8.993930000000000646e+00 7.965299999999999603e-01 3.199609999999999843e+00 8.817840000000000344e+00 6.103989999999999583e+00 9.240690000000000737e+00 3.564900000000000180e+00 8.164299999999999891e-01 8.266469999999999985e+00 3.552979999999999805e+00 5.852280000000000371e+00 8.991120000000000445e+00 8.870499999999999829e+00 5.922100000000000142e-01 8.493430000000000035e+00 8.773649999999999949e+00 5.955119999999999969e+00 -1.078500000000000014e-01 1.754399999999999959e+00 4.406719999999999970e+00 -6.125699999999999479e-01 1.599879999999999969e+00 9.457570000000000476e+00 1.375599999999999878e-01 6.756730000000000125e+00 4.008440000000000225e+00 -8.647099999999999786e-01 6.927710000000000257e+00 9.319470000000000809e+00 5.430729999999999613e+00 1.382309999999999928e+00 3.952059999999999906e+00 4.219750000000000334e+00 1.516029999999999989e+00 9.114520000000000621e+00 5.337930000000000064e+00 6.880130000000000301e+00 4.002080000000000304e+00 4.506140000000000256e+00 6.690820000000000434e+00 9.206749999999999545e+00 1.315099999999999936e+00 4.204030000000000378e+00 1.716639999999999944e+00 2.487900000000000111e-01 4.087670000000000137e+00 6.917550000000000310e+00 1.137240000000000029e+00 9.291660000000000252e+00 1.648150000000000004e+00 1.771899999999999864e-01 9.050720000000000098e+00 6.940159999999999663e+00 6.214419999999999611e+00 4.266300000000000203e+00 1.575260000000000105e+00 5.610079999999999956e+00 4.082239999999999647e+00 6.956800000000000317e+00 6.307269999999999932e+00 9.393140000000000711e+00 1.563299999999999912e+00 5.380300000000000082e+00 9.279680000000000817e+00 6.795110000000000205e+00 6.767400000000000082e-01 4.049280000000000435e+00 4.182649999999999757e+00 -3.295899999999999941e-01 4.156430000000000291e+00 9.620879999999999654e+00 8.537900000000000489e-01 9.091129999999999711e+00 4.127290000000000347e+00 -2.066900000000000126e-01 9.355000000000000426e+00 9.430460000000000065e+00 6.028200000000000003e+00 4.042029999999999568e+00 4.219669999999999810e+00 4.753860000000000419e+00 4.020299999999999763e+00 9.561429999999999652e+00 5.993339999999999890e+00 9.224690000000000722e+00 4.143010000000000304e+00 4.984720000000000262e+00 9.330700000000000216e+00 9.333050000000000068e+00 5.151099999999999568e-01 1.248420000000000085e+00 1.556009999999999893e+00 -1.749499999999999944e-01 1.593529999999999891e+00 6.803359999999999630e+00 6.791300000000000114e-01 6.823199999999999932e+00 1.649610000000000021e+00 -1.998099999999999876e-01 6.569219999999999615e+00 6.673070000000000057e+00 5.533459999999999823e+00 1.689859999999999918e+00 1.151149999999999896e+00 5.073540000000000383e+00 1.344230000000000036e+00 6.596199999999999619e+00 5.626680000000000348e+00 6.746159999999999712e+00 1.123969999999999914e+00 4.938719999999999999e+00 6.668750000000000178e+00 6.700980000000000381e+00
4.752819999999999823e+00 3.155889999999999862e+00 2.502990000000000048e+00 4.004389999999999894e+00 2.848160000000000025e+00 7.880790000000000184e+00 4.740730000000000111e+00 8.308429999999999538e+00 2.730649999999999800e+00 3.680540000000000145e+00 8.233650000000000801e+00 8.001350000000000406e+00 9.856070000000000775e+00 3.142510000000000137e+00 2.620080000000000187e+00 -1.151489999999999903e+00 2.996049999999999880e+00 8.062480000000000757e+00 9.838739999999999597e+00 8.309409999999999741e+00 2.532410000000000050e+00 -1.220839999999999925e+00 8.569910000000000139e+00 7.727389999999999759e+00 1.676830000000000043e+00 3.780800000000000272e-01 3.121160000000000156e+00 9.768599999999999506e-01 4.552999999999999825e-01 8.486570000000000391e+00 1.811539999999999928e+00 5.717319999999999958e+00 3.105949999999999989e+00 9.226299999999999502e-01 5.586149999999999949e+00 8.321109999999999118e+00 6.871889999999999610e+00 5.231400000000000494e-01 3.088600000000000012e+00 6.046719999999999651e+00 4.423000000000000265e-01 8.275779999999999248e+00 6.841230000000000366e+00 5.733480000000000132e+00 3.027130000000000098e+00 6.133930000000000327e+00 5.690839999999999677e+00 8.574030000000000484e+00 2.233909999999999840e+00 2.608880000000000088e+00 6.578199999999999603e-01 1.355089999999999906e+00 2.623380000000000045e+00 5.722909999999999719e+00 2.305000000000000160e+00 7.855809999999999960e+00 3.802499999999999769e-01 1.308329999999999993e+00 7.748940000000000161e+00 5.579139999999999766e+00 7.562100000000000044e+00 2.493399999999999839e+00 4.382599999999999829e-01 6.583020000000000316e+00 2.638650000000000162e+00 5.755460000000000242e+00 7.312260000000000204e+00 7.912720000000000198e+00 3.770899999999999808e-01 6.493619999999999948e+00 7.897160000000000402e+00 5.837329999999999686e+00 4.112219999999999764e+00 1.046068999999999960e+01 5.137940000000000396e+00 5.182809999999999917e+00 1.040348999999999968e+01 4.157000000000000278e-02 4.348840000000000039e+00 5.252040000000000042e+00 5.347839999999999705e+00 5.129050000000000331e+00 5.294679999999999609e+00 4.522000000000000325e-02 -8.370300000000000518e-01 2.227200000000000013e-01 5.222139999999999560e+00 1.034828000000000081e+01 1.040518999999999927e+01 1.594999999999999890e-02 9.409119999999999706e+00 5.243920000000000137e+00 5.123540000000000205e+00 -1.759989999999999943e+00 5.427640000000000242e+00 1.056603999999999921e+01 3.502800000000000136e+00 4.545960000000000001e+00 3.482169999999999987e+00 2.760979999999999990e+00 4.406769999999999854e+00 8.827669999999999462e+00 3.454600000000000115e+00 9.720869999999999678e+00 3.368920000000000137e+00 2.431979999999999809e+00 9.674210000000000420e+00 8.764839999999999520e+00 8.476960000000000051e+00 4.403690000000000104e+00 3.449390000000000178e+00 7.902759999999999785e+00 4.569749999999999979e+00 8.887790000000000745e+00 8.808989999999999654e+00 9.833819999999999339e+00 3.237999999999999989e+00 3.170189999999999841e+00 1.702380000000000004e+00 2.256679999999999797e+00 2.283459999999999823e+00 1.706870000000000109e+00 7.641460000000000363e+00 2.877810000000000201e+00 7.275820000000000398e+00 2.434759999999999813e+00 1.953019999999999978e+00 7.076329999999999565e+00 7.527809999999999668e+00 8.083310000000000883e+00 1.962760000000000060e+00 2.497009999999999952e+00 7.331550000000000011e+00 2.060000000000000053e+00 7.789539999999999687e+00 8.114150000000000418e+00 7.267280000000000406e+00 2.289460000000000051e+00 7.052959999999999674e+00 7.347550000000000026e+00 7.842190000000000438e+00 2.497650000000000148e+00 1.260729999999999906e+00 4.941970000000000418e+00 1.643319999999999892e+00 1.065430000000000099e+00 1.017844000000000015e+01 2.496840000000000170e+00 6.271320000000000228e+00 4.970469999999999722e+00 1.793139999999999956e+00 6.330680000000000085e+00 1.024193999999999960e+01 7.781109999999999971e+00 1.193850000000000078e+00 4.933390000000000164e+00 6.895590000000000330e+00 8.721999999999999753e-01 1.036763999999999974e+01 7.691379999999999661e+00 6.515270000000000117e+00 4.801260000000000083e+00 6.634540000000000326e+00 6.201859999999999928e+00 1.039694000000000074e+01 3.894099999999999895e+00 3.815479999999999983e+00 7.789599999999999858e-01 3.048220000000000152e+00 3.629160000000000164e+00 6.101580000000000226e+00 3.828149999999999942e+00 9.019370000000000331e+00 6.909499999999999531e-01 2.831360000000000099e+00 9.008070000000000022e+00 6.046969999999999956e+00 9.118779999999999220e+00 3.902740000000000098e+00 9.418100000000000360e-01 8.214410000000000878e+00 3.853610000000000202e+00 6.025420000000000442e+00 9.211570000000000036e+00 8.945349999999999469e+00 7.004599999999999715e-01 8.070650000000000546e+00 9.383749999999999147e+00 5.991310000000000358e+00 2.417600000000000027e-01 1.526529999999999943e+00 3.914769999999999861e+00 -8.227700000000000014e-01 1.653620000000000090e+00 9.557980000000000587e+00 2.341199999999999948e-01 6.866780000000000328e+00 4.034440000000000026e+00 -6.362400000000000277e-01 6.714129999999999932e+00 9.112019999999999342e+00 5.568760000000000154e+00 1.759859999999999980e+00 4.004089999999999705e+00 4.582300000000000040e+00 1.422029999999999905e+00 9.264839999999999520e+00 5.229910000000000281e+00 6.902790000000000425e+00 4.091169999999999973e+00 4.432089999999999641e+00 6.659419999999999895e+00 9.484780000000000655e+00 1.217289999999999983e+00 4.179179999999999673e+00 1.788939999999999975e+00 3.262800000000000145e-01 4.291159999999999641e+00 6.851189999999999891e+00 1.091250000000000053e+00 9.388759999999999550e+00 1.725060000000000038e+00 4.113800000000000234e-01 9.507369999999999877e+00 6.971009999999999707e+00 6.292740000000000222e+00 4.283089999999999620e+00 1.650830000000000020e+00 5.251019999999999577e+00 4.126879999999999882e+00 7.004559999999999675e+00 6.201120000000000410e+00 9.503709999999999880e+00 1.680029999999999912e+00 5.119119999999999671e+00 9.293160000000000309e+00 6.930939999999999657e+00 5.948799999999999644e-01 4.163470000000000226e+00 4.248669999999999725e+00 -1.264000000000000019e-02 4.080940000000000012e+00 9.605579999999999785e+00 6.525400000000000089e-01 9.458069999999999311e+00 4.366119999999999557e+00 -3.090300000000000269e-01 9.292749999999999844e+00 9.518480000000000274e+00 5.940520000000000245e+00 4.260880000000000223e+00 4.342369999999999841e+00 5.113760000000000083e+00 4.147199999999999775e+00 9.718949999999999534e+00 5.849160000000000359e+00 9.438370000000000815e+00 4.184190000000000076e+00 4.960560000000000080e+00 9.246159999999999712e+00 9.480990000000000251e+00 6.915900000000000380e-01 1.447210000000000107e+00 1.499779999999999891e+00 -1.794099999999999862e-01 1.696739999999999915e+00 6.562909999999999577e+00 7.759800000000000031e-01 6.666120000000000267e+00 1.339979999999999949e+00 -4.402200000000000002e-01 6.892999999999999794e+00 6.406299999999999883e+00 5.702580000000000204e+00 1.580950000000000077e+00 1.255049999999999999e+00 4.983299999999999841e+00 1.531840000000000090e+00 6.764439999999999564e+00 5.674269999999999925e+00 6.750499999999999723e+00 1.511879999999999891e+00 4.815750000000000419e+00 6.802889999999999660e+00 6.786410000000000053e+00