-9.141715629000000263e+02
-9.046897735400000329e+02
-9.054990652000000182e+02
-9.070971423700000287e+02
-9.026365769899999805e+02
-9.079446961099999953e+02
-9.121241481299999805e+02
-9.148035345800000187e+02
-9.111719253300000219e+02
-9.048353621100000055e+02
-9.154767561400000204e+02
-9.056037195599999450e+02
-9.205849115700000311e+02
-9.067649754599999596e+02
-9.048435618900000463e+02
-9.061659497800000054e+02
-9.065385212500000307e+02
-9.126360525100000132e+02
-9.036167357399999673e+02
-9.052110168200000544e+02
-9.057770160999999689e+02
-9.163050490199999558e+02
-9.061477718500000265e+02
-9.208598781099999542e+02
-9.051578524899999820e+02
-9.031107913900000312e+02
-9.059749702000000298e+02
-9.110537321799999972e+02
-9.121217325000000073e+02
-9.104395165800000314e+02
-9.016838162100000318e+02
-9.173406196900000396e+02
-9.116278331299999991e+02
-9.209157250499999918e+02
-9.084762627200000225e+02
-9.048761471999999912e+02
-9.113021149300000161e+02
-9.043049791199999845e+02
-9.141271673100000044e+02
-9.057362462400000140e+02
-9.049523144300000013e+02
-9.040077924099999791e+02
-9.047752354599999762e+02
-9.213729238299999906e+02
-9.057462947100000292e+02
-9.170761081399999739e+02
-9.087189548200000218e+02
-9.161693619100000205e+02
-9.071365755900000067e+02
-9.070491411399999606e+02
-9.016965570400000161e+02
-9.213059129399999847e+02
-9.125403966300000320e+02
-9.112850435699999707e+02
-9.118733511299999464e+02
-9.062284514100000479e+02
-9.028679027700000006e+02
-9.114976678799999945e+02
-9.027380994699999519e+02
-9.216672497499999963e+02
-9.048557231099999854e+02
-9.065077098499999693e+02
-9.042971814700000550e+02
-9.212854886999999735e+02
-9.212119362400000000e+02
-9.031795711199999914e+02
-9.099067035000000487e+02
-9.109181928699999844e+02
-9.034887355800000250e+02
-9.046586849100000336e+02
-9.088375148000000081e+02
-9.071085271800000100e+02
-9.158178837899999962e+02
-9.099180890300000328e+02
-9.149496672100000296e+02
-9.213452324500000259e+02
-9.147523670699999911e+02
-9.052442598699999508e+02
-9.250556886299999633e+02
-9.071878451899999618e+02
-9.048164817699999958e+02
-9.053471602299999859e+02
-9.025182573199999752e+02
-9.131335298699999612e+02
-9.110812215800000331e+02
-9.145303659200000084e+02
-9.037556127499999548e+02
-9.084167334600000459e+02
-9.062825957799999514e+02
-9.115122021600000153e+02
-9.153385347099999763e+02
-9.070157023699999854e+02
-9.065822983199999499e+02
-9.030123128999999835e+02
-9.049841013599999542e+02
-9.124583712500000274e+02
-9.076396405399999594e+02
-9.040518098899999586e+02
-9.202583399200000258e+02
-9.138599021300000231e+02
