1.041499413800000085e+01 0.000000000000000000e+00 0.000000000000000000e+00 -6.952288000000000044e-03 1.041502023199999982e+01 0.000000000000000000e+00 6.165609999999999537e-04 6.538120000000000346e-04 1.071928637499999937e+01
1.042418136999999945e+01 0.000000000000000000e+00 0.000000000000000000e+00 -6.958421000000000224e-03 1.042420748800000041e+01 0.000000000000000000e+00 6.171049999999999539e-04 6.543890000000000123e-04 1.072874202899999929e+01
1.027229003799999951e+01 0.000000000000000000e+00 0.000000000000000000e+00 -6.857028999999999729e-03 1.027231577599999923e+01 0.000000000000000000e+00 6.081129999999999695e-04 6.448540000000000435e-04 1.057241292600000016e+01
1.045985740599999936e+01 0.000000000000000000e+00 0.000000000000000000e+00 -6.982234999999999830e-03 1.045988361300000058e+01 0.000000000000000000e+00 6.192170000000000313e-04 6.566280000000000294e-04 1.076546040200000043e+01
1.037956209600000079e+01 0.000000000000000000e+00 0.000000000000000000e+00 -6.928636000000000170e-03 1.037958810099999951e+01 0.000000000000000000e+00 6.144629999999999884e-04 6.515880000000000370e-04 1.068281912399999989e+01
1.032111042000000012e+01 0.000000000000000000e+00 0.000000000000000000e+00 -6.889618000000000131e-03 1.032113627899999919e+01 0.000000000000000000e+00 6.110030000000000452e-04 6.479180000000000399e-04 1.062265967999999994e+01
1.035178997400000078e+01 0.000000000000000000e+00 0.000000000000000000e+00 -6.910097999999999935e-03 1.035181590999999912e+01 0.000000000000000000e+00 6.128190000000000156e-04 6.498440000000000076e-04 1.065423559100000084e+01
1.041484737699999918e+01 0.000000000000000000e+00 0.000000000000000000e+00 -6.952189999999999585e-03 1.041487347099999994e+01 0.000000000000000000e+00 6.165520000000000288e-04 6.538030000000000013e-04 1.071913532599999996e+01
1.022767228400000050e+01 0.000000000000000000e+00 0.000000000000000000e+00 -6.827246000000000356e-03 1.022769790899999975e+01 0.000000000000000000e+00 6.054720000000000197e-04 6.420529999999999597e-04 1.052649158700000065e+01
1.037893732500000077e+01 0.000000000000000000e+00 0.000000000000000000e+00 -6.928219000000000218e-03 1.037896332999999949e+01 0.000000000000000000e+00 6.144259999999999479e-04 6.515489999999999650e-04 1.068217609999999951e+01
1.048542790299999972e+01 0.000000000000000000e+00 0.000000000000000000e+00 -6.999303999999999595e-03 1.048545417399999913e+01 0.000000000000000000e+00 6.207300000000000014e-04 6.582339999999999459e-04 1.079177798599999960e+01
1.045292652800000077e+01 0.000000000000000000e+00 0.000000000000000000e+00 -6.977609000000000068e-03 1.045295271800000059e+01 0.000000000000000000e+00 6.188059999999999568e-04 6.561930000000000106e-04 1.075832702699999999e+01
1.035960985000000001e+01 0.000000000000000000e+00 0.000000000000000000e+00 -6.915316999999999818e-03 1.035963580600000000e+01 0.000000000000000000e+00 6.132820000000000415e-04 6.503350000000000406e-04 1.066228393799999985e+01
1.053173623500000033e+01 0.000000000000000000e+00 0.000000000000000000e+00 -7.030215999999999722e-03 1.053176262200000046e+01 0.000000000000000000e+00 6.234720000000000236e-04 6.611409999999999640e-04 1.083943929700000020e+01
1.030341383400000055e+01 0.000000000000000000e+00 0.000000000000000000e+00 -6.877804999999999856e-03 1.030343964899999953e+01 0.000000000000000000e+00 6.099550000000000241e-04 6.468070000000000026e-04 1.060444605800000062e+01
1.036217242799999916e+01 0.000000000000000000e+00 0.000000000000000000e+00 -6.917028000000000412e-03 1.036219839099999973e+01 0.000000000000000000e+00 6.134340000000000495e-04 6.504959999999999735e-04 1.066492138699999970e+01
1.026591174400000028e+01 0.000000000000000000e+00 0.000000000000000000e+00 -6.852770999999999689e-03 1.026593746500000037e+01 0.000000000000000000e+00 6.077349999999999810e-04 6.444530000000000180e-04 1.056584827900000079e+01
1.039521563699999973e+01 0.000000000000000000e+00 0.000000000000000000e+00 -6.939085000000000218e-03 1.039524168199999998e+01 0.000000000000000000e+00 6.153899999999999475e-04 6.525699999999999947e-04 1.069893001099999985e+01
1.041945118800000003e+01 0.000000000000000000e+00 0.000000000000000000e+00 -6.955262999999999723e-03 1.041947729400000000e+01 0.000000000000000000e+00 6.168249999999999905e-04 6.540919999999999981e-04 1.072387364599999948e+01
1.044693318600000076e+01 0.000000000000000000e+00 0.000000000000000000e+00 -6.973608000000000064e-03 1.044695935999999925e+01 0.000000000000000000e+00 6.184520000000000208e-04 6.558170000000000536e-04 1.075215857799999952e+01
1.035468261399999967e+01 0.000000000000000000e+00 0.000000000000000000e+00 -6.912027999999999749e-03 1.035470855800000045e+01 0.000000000000000000e+00 6.129899999999999976e-04 6.500259999999999459e-04 1.065721274500000071e+01
1.042880896700000015e+01 0.000000000000000000e+00 0.000000000000000000e+00 -6.961509999999999747e-03 1.042883509600000025e+01 0.000000000000000000e+00 6.173790000000000397e-04 6.546790000000000248e-04 1.073350482799999916e+01
1.037442530699999921e+01 0.000000000000000000e+00 0.000000000000000000e+00 -6.925207000000000064e-03 1.037445130000000049e+01 0.000000000000000000e+00 6.141589999999999723e-04 6.512650000000000470e-04 1.067753225499999914e+01
1.043150866799999932e+01 0.000000000000000000e+00 0.000000000000000000e+00 -6.963312000000000147e-03 1.043153480399999999e+01 0.000000000000000000e+00 6.175389999999999569e-04 6.548489999999999910e-04 1.073628340600000008e+01
1.035358942100000057e+01 0.000000000000000000e+00 0.000000000000000000e+00 -6.911299000000000088e-03 1.035361536199999932e+01 0.000000000000000000e+00 6.129259999999999656e-04 6.499570000000000521e-04 1.065608761200000032e+01
1.037196690699999913e+01 0.000000000000000000e+00 0.000000000000000000e+00 -6.923565999999999922e-03 1.037199289399999991e+01 0.000000000000000000e+00 6.140139999999999661e-04 6.511110000000000075e-04 1.067500202899999984e+01
1.039709514499999976e+01 0.000000000000000000e+00 0.000000000000000000e+00 -6.940339999999999704e-03 1.039712119500000043e+01 0.000000000000000000e+00 6.155009999999999605e-04 6.526880000000000095e-04 1.070086443299999956e+01
1.037567395399999981e+01 0.000000000000000000e+00 0.000000000000000000e+00 -6.926040999999999968e-03 1.037569994999999956e+01 0.000000000000000000e+00 6.142330000000000532e-04 6.513439999999999898e-04 1.067881738300000016e+01
1.033483507699999926e+01 0.000000000000000000e+00 0.000000000000000000e+00 -6.898780000000000190e-03 1.033486096999999937e+01 0.000000000000000000e+00 6.118150000000000368e-04 6.487799999999999514e-04 1.063678532700000012e+01
1.041788003899999993e+01 0.000000000000000000e+00 0.000000000000000000e+00 -6.954214000000000229e-03 1.041790613999999948e+01 0.000000000000000000e+00 6.167320000000000441e-04 6.539929999999999572e-04 1.072225659299999911e+01
1.032322979899999993e+01 0.000000000000000000e+00 0.000000000000000000e+00 -6.891033000000000401e-03 1.032325566399999950e+01 0.000000000000000000e+00 6.111279999999999534e-04 6.480509999999999656e-04 1.062484098100000018e+01
1.041511558999999920e+01 0.000000000000000000e+00 0.000000000000000000e+00 -6.952368999999999910e-03 1.041514168500000004e+01 0.000000000000000000e+00 6.165679999999999555e-04 6.538200000000000522e-04 1.071941137600000005e+01
1.051038572100000046e+01 0.000000000000000000e+00 0.000000000000000000e+00 -7.015964000000000401e-03 1.051041205499999975e+01 0.000000000000000000e+00 6.222079999999999625e-04 6.597999999999999915e-04 1.081746498999999950e+01
1.053788684499999917e+01 0.000000000000000000e+00 0.000000000000000000e+00 -7.034321999999999971e-03 1.053791324800000062e+01 0.000000000000000000e+00 6.238360000000000086e-04 6.615269999999999701e-04 1.084576960799999945e+01
1.031062135300000016e+01 0.000000000000000000e+00 0.000000000000000000e+00 -6.882616000000000255e-03 1.031064718600000063e+01 0.000000000000000000e+00 6.103820000000000252e-04 6.472599999999999795e-04 1.061186415799999949e+01
1.057871868099999979e+01 0.000000000000000000e+00 0.000000000000000000e+00 -7.061579000000000120e-03 1.057874518600000080e+01 0.000000000000000000e+00 6.262530000000000093e-04 6.640899999999999928e-04 1.088779441700000028e+01
1.044367441700000043e+01 0.000000000000000000e+00 0.000000000000000000e+00 -6.971432999999999970e-03 1.044370058400000012e+01 0.000000000000000000e+00 6.182590000000000178e-04 6.556119999999999700e-04 1.074880459899999963e+01
1.030823506800000011e+01 0.000000000000000000e+00 0.000000000000000000e+00 -6.881023000000000001e-03 1.030826089500000009e+01 0.000000000000000000e+00 6.102409999999999736e-04 6.471100000000000029e-04 1.060940815200000031e+01
1.014534695899999939e+01 0.000000000000000000e+00 0.000000000000000000e+00 -6.772290999999999728e-03 1.014537237799999936e+01 0.000000000000000000e+00 6.005980000000000390e-04 6.368850000000000119e-04 1.044176098400000008e+01
1.037646210800000013e+01 0.000000000000000000e+00 0.000000000000000000e+00 -6.926566999999999794e-03 1.037648810600000004e+01 0.000000000000000000e+00 6.142800000000000343e-04 6.513930000000000024e-04 1.067962856499999980e+01
1.033220794100000006e+01 0.000000000000000000e+00 0.000000000000000000e+00 -6.897025999999999678e-03 1.033223382799999968e+01 0.000000000000000000e+00 6.116599999999999815e-04 6.486149999999999555e-04 1.063408143500000058e+01
1.039843150599999966e+01 0.000000000000000000e+00 0.000000000000000000e+00 -6.941232000000000305e-03 1.039845755900000057e+01 0.000000000000000000e+00 6.155800000000000117e-04 6.527720000000000310e-04 1.070223983700000048e+01
1.043477801899999946e+01 0.000000000000000000e+00 0.000000000000000000e+00 -6.965494000000000026e-03 1.043480416300000080e+01 0.000000000000000000e+00 6.177319999999999599e-04 6.550539999999999662e-04 1.073964827700000058e+01
1.035200547300000018e+01 0.000000000000000000e+00 0.000000000000000000e+00 -6.910241000000000126e-03 1.035203141000000038e+01 0.000000000000000000e+00 6.128320000000000035e-04 6.498580000000000112e-04 1.065445738600000070e+01
1.039333226900000007e+01 0.000000000000000000e+00 0.000000000000000000e+00 -6.937828000000000050e-03 1.039335830899999991e+01 0.000000000000000000e+00 6.152780000000000271e-04 6.524519999999999799e-04 1.069699161700000012e+01
1.042386427699999984e+01 0.000000000000000000e+00 0.000000000000000000e+00 -6.958208999999999922e-03 1.042389039400000073e+01 0.000000000000000000e+00 6.170859999999999800e-04 6.543690000000000227e-04 1.072841567200000057e+01
1.048312991200000077e+01 0.000000000000000000e+00 0.000000000000000000e+00 -6.997770000000000379e-03 1.048315617699999969e+01 0.000000000000000000e+00 6.205940000000000284e-04 6.580890000000000481e-04 1.078941285500000014e+01
1.029386983300000047e+01 0.000000000000000000e+00 0.000000000000000000e+00 -6.871434000000000049e-03 1.029389562499999933e+01 0.000000000000000000e+00 6.093900000000000185e-04 6.462080000000000038e-04 1.059462321300000021e+01
1.044104127399999982e+01 0.000000000000000000e+00 0.000000000000000000e+00 -6.969674999999999829e-03 1.044106743400000070e+01 0.000000000000000000e+00 6.181029999999999467e-04 6.554469999999999741e-04 1.074609452400000009e+01
1.039674433399999920e+01 0.000000000000000000e+00 0.000000000000000000e+00 -6.940105999999999706e-03 1.039677038299999978e+01 0.000000000000000000e+00 6.154799999999999551e-04 6.526659999999999883e-04 1.070050337200000001e+01
