4.671928384860798644e+00 3.040371043753418601e+00 2.628057017710557997e+00 3.775334745535320558e+00 3.049866475099132224e+00 7.867782249028002717e+00 4.681756640910907485e+00 8.240229899195657737e+00 2.633309194585492730e+00 3.785163001585429843e+00 8.249725330541373580e+00 7.873034425902937450e+00 9.814310793557787349e+00 3.037062651804069535e+00 2.620093339763282181e+00 8.917717156135751111e+00 3.046548083154066333e+00 7.859818580138623112e+00 9.810201631649142939e+00 8.228004824557308083e+00 2.620900817495799728e+00 8.913607990333673570e+00 8.237500264960539553e+00 7.860636048808944842e+00 1.764996914861028277e+00 4.422500655294474559e-01 3.062431980660182518e+00 8.684032755355506339e-01 4.517454968751610789e-01 8.302157211977627682e+00 1.768468993037515036e+00 5.634406979372287516e+00 3.055839863616174323e+00 8.718753517220475535e-01 5.643902419775518098e+00 8.295575094929318993e+00 6.889775017913704502e+00 4.490691488064055270e-01 3.066415631632882999e+00 5.993181378588226416e+00 4.585645801521192055e-01 8.306140862950329051e+00 6.903008432879114586e+00 5.630641015317085163e+00 3.063245045981273229e+00 6.006414793553635612e+00 5.640136446662799230e+00 8.302970277298717505e+00 2.215148908528198568e+00 2.589143105163148384e+00 4.419958815786125261e-01 1.318555269202720925e+00 2.598638536508862451e+00 5.681721112896057413e+00 2.226790836519988659e+00 7.773648897345585951e+00 4.434923238212202801e-01 1.330197197194511016e+00 7.783144328691298242e+00 5.683217555138665666e+00 7.360098971192327255e+00 2.587024857669621980e+00 4.446916411999568552e-01 6.463505331866849168e+00 2.596520289015335603e+00 5.684416872517402020e+00 7.355183446553678728e+00 7.766640133096480270e+00 4.380592146249382424e-01 6.458589807228200641e+00 7.776135564442193449e+00 5.677784445942382519e+00 5.131611463836834197e+00 5.187620645570480526e+00 1.822489855214936682e-03 4.235017824511356999e+00 5.197116076916193705e+00 5.241547721172659102e+00 5.117493275732496016e+00 1.036848521781280752e+01 7.387105651366464819e-03 4.220899636407017930e+00 1.037798064915852159e+01 5.247112336968811519e+00 8.478175996982615814e+00 5.202156329308076366e+00 1.047740979152422547e+01 9.374769634404650276e+00 5.192670897958079124e+00 5.237684551148884537e+00 8.462727685480230022e+00 1.038967543722767672e+01 1.047721811279474124e+01 9.359321324805707221e+00 1.038018000588196266e+01 5.237492881477296969e+00 3.487471390117028225e+00 4.526181635812304371e+00 3.351635847575126892e+00 2.590877750791550138e+00 4.535677067158017550e+00 8.591361078892573389e+00 3.470595295069813346e+00 9.707895410614169052e+00 3.345859140507198237e+00 2.574001655744335260e+00 9.717390841959884895e+00 8.585584371824644734e+00 8.624771434320493313e+00 4.533383929022739345e+00 3.345491638953467461e+00 7.728177793005024832e+00 4.542879369425969927e+00 8.585226870266611243e+00 8.598314888924518229e+00 9.706485401743821129e+00 3.350230830514961955e+00 7.701721249599040142e+00 9.715980833089536972e+00 8.589956061832406675e+00 2.961196498221930096e+00 1.934832780260437701e+00 2.338627802547433632e+00 2.064602858896452453e+00 1.944328211606151324e+00 7.578353033864878796e+00 2.965086591227235058e+00 7.105491910937299593e+00 2.312325231867055741e+00 2.068492951901757415e+00 7.114987342283013660e+00 7.552050463184500906e+00 8.097386330135973864e+00 1.938888558805146545e+00 2.336566224711284612e+00 7.200792688820506271e+00 1.948383999208377571e+00 7.576301456024428838e+00 8.093589624623964696e+00 7.123015513005334753e+00 2.331549935014177510e+00 7.196995987201929346e+00 7.132500944355331107e+00 7.571275175389517997e+00 2.498754157417768518e+00 1.099130390333020291e+00 4.961743843804696574e+00 1.602160519995732946e+00 1.108615821683017311e+00 1.020146908418003662e+01 2.520967409601020837e+00 6.298019685682341162e+00 4.942799353057657719e+00 1.624373768285553021e+00 6.307515126085572632e+00 1.018253458437080283e+01 7.646874082161390085e+00 1.107754056038023460e+00 4.954840500591283892e+00 6.750280442835912886e+00 1.117249487383737083e+00 1.019456573190872817e+01 7.654157188905169384e+00 6.289785794115843487e+00 4.952778314781492774e+00 6.757563547589702679e+00 6.299281234519074957e+00 1.019251354609463789e+01 3.941023672609400119e+00 3.683930471758147807e+00 7.272578460106844389e-01 3.044430033283922032e+00 3.693425903103861874e+00 5.966983077328128715e+00 3.954463169910878317e+00 8.876390778994711184e+00 7.333574431312559483e-01 3.057869528595410280e+00 8.885886219397942654e+00 5.973092674444401062e+00 9.072883165618231160e+00 3.690884454935598580e+00 7.241227809259990211e-01 8.176289526292753962e+00 3.700379886281312647e+00 5.963848012243443186e+00 9.043497306233803101e+00 8.899067366571459914e+00 7.420896201705027284e-01 8.146903664918335508e+00 8.908562806974689607e+00 5.981824851483647620e+00 1.810112078968258986e-01 1.558438222419383568e+00 4.033056197106363427e+00 -7.155824334186418056e-01 1.567933662822614371e+00 9.272791428419507653e+00 1.921927029621597893e-01 6.746263019786753468e+00 4.033549541097244173e+00 -7.044009344598757272e-01 6.755748451136751598e+00 9.273274781472585104e+00 5.321508430702821535e+00 1.569620525310456260e+00 4.037289024281382588e+00 4.424914791377344336e+00 1.579115956656169883e+00 9.277014255598826864e+00 5.329182851576990565e+00 6.741395249550675040e+00 4.038446208035127327e+00 4.432589212251512478e+00 6.750890680896389995e+00 9.278171439352572492e+00 1.125472138217765927e+00 4.151495453653165413e+00 1.644364450659472343e+00 2.288784988922880625e-01 4.160990884998877704e+00 6.884089681976917063e+00 1.116494942496769394e+00 9.334604537159789217e+00 1.642788053467337583e+00 2.199013050747339049e-01 9.344089968509784683e+00 6.882513293842678515e+00 6.255232251023659096e+00 4.145217692329710601e+00 1.650790956587244951e+00 5.358638611698180121e+00 4.154713123675423780e+00 6.890516187904689893e+00 6.778555709410840624e-01 4.075094213892732853e+00 4.265275702946071945e+00 -2.187380683843936913e-01 4.084589645238445144e+00 9.505000934263515333e+00 6.644069915839195817e-01 9.264323439460685705e+00 4.264792873094034320e+00 -2.321866477415581442e-01 9.273818870806401549e+00 9.504518104411479484e+00 5.813203216757784730e+00 4.080868300443221131e+00 4.272562405174977762e+00 4.916609577432306644e+00 4.090363731788933421e+00 9.512287636492422038e+00 5.809013198711152626e+00 9.266938584637911092e+00 4.282344283397669926e+00 4.912419559385674539e+00 9.276434015983625159e+00 9.522069514715113314e+00 6.343270744686730911e-01 1.478592620150679604e+00 1.414507600839232548e+00 -2.622665668467944466e-01 1.488088060553910630e+00 6.654242832152377218e+00 6.267585597017791832e-01 6.671169767263592121e+00 1.410492907209661695e+00 -2.698450777198770911e-01 6.680655196708345400e+00 6.650218145596737962e+00 5.800016855648967073e+00 1.417415285588746299e+00 1.424920983832866916e+00 4.903423218226932612e+00 1.426900716938743319e+00 6.664646224208207848e+00 5.775374940350038955e+00 6.683266660148937888e+00 1.418086523142514821e+00 4.878781301024560868e+00 6.692762091494651955e+00 6.657811754459959097e+00
4.672468210157560975e+00 3.041800702205719187e+00 2.627565830008410153e+00 3.775234795891683426e+00 3.048787162995657329e+00 7.868563207062745590e+00 4.681306572577137004e+00 8.240609795181866204e+00 2.633288760922113614e+00 3.785613086271254701e+00 8.249165516149920663e+00 7.873145022569747908e+00 9.814381017728605272e+00 3.035832710955227220e+00 2.620144467780867181e+00 8.917216961482493431e+00 3.046818639917459492e+00 7.860538235852581046e+00 9.811631628306120234e+00 8.227625441355648661e+00 2.621281445854349634e+00 8.913117733903801465e+00 8.237761113474014962e+00 7.861675715431466038e+00 1.765076927749956504e+00 4.423599267464872198e-01 3.062261897002543698e+00 8.679532757269108334e-01 4.522249942877715201e-01 8.301696687924483342e+00 1.768319039504146373e+00 5.634027068704121177e+00 3.055970177936355281e+00 8.730653841213948940e-01 5.643512836874487348e+00 8.295785684700504703e+00 6.889275060155789276e+00 4.493486186634291779e-01 3.065935278804938324e+00 5.992391121998440262e+00 4.594947915401699778e-01 8.306539863321050987e+00 6.903358641900725345e+00 5.630420321263404304e+00 3.062405315205457779e+00 6.006334815964638807e+00 5.639736676145152394e+00 8.303240623592348157e+00 2.216148703265292674e+00 2.590493059613845350e+00 4.417348577009246879e-01 1.318705383143936594e+00 2.598008592529932326e+00 5.681751713354591615e+00 2.226891015092391957e+00 7.772209351775674513e+00 4.439736478345231441e-01 1.330527266572603784e+00 7.783343902372747536e+00 5.682677439825682519e+00 7.360169016785744311e+00 2.586774880170934487e+00 4.447018815609162234e-01 6.463135212308390720e+00 2.596500780095948091e+00 5.685036816800793424e+00 7.354693332105466830e+00 7.766980266031815461e+00 4.383088091239856210e-01 6.459080037181168521e+00 7.775345295836851633e+00 5.677385259113162164e+00 5.131751637652423703e+00 5.187470011109381218e+00 1.092653873262626127e-03 4.234407657116896928e+00 5.197546349985362468e+00 5.241977210214063376e+00 5.117242836561849195e+00 1.036924651036873612e+01 8.866366908241890207e-03 4.221359562154119338e+00 1.037791113536050247e+01 5.247552491645076422e+00 8.478226067928575915e+00 5.202305885894176640e+00 1.047690966581210503e+01 9.374319651985430824e+00 5.192630766951640275e+00 5.237634497930045541e+00 8.463197718598054919e+00 1.038890604338246781e+01 1.047778890345610492e+01 9.359121290724422337e+00 1.038037994957637800e+01 5.237472660562673354e+00 3.488131403577765965e+00 4.521765531378923342e+00 3.355799980601954502e+00 2.589007742642851717e+00 4.535646774292839467e+00 8.591430734230609545e+00 3.471955419517323449e+00 9.705956784632995493e+00 3.347091167614202778e+00 2.572971391117742090e+00 9.718540853550043934e+00 8.585813125276390068e+00 8.624821428177940064e+00 4.534283186389507669e+00 3.344660834041030650e+00 7.732177464075302709e+00 4.543980674503482753e+00 8.585826668946028306e+00 8.596524968679132073e+00 9.706724489978727277e+00 3.349600257496917699e+00 7.700622387135430458e+00 9.715655723532849564e+00 8.584546135302202785e+00 2.962177188959473906e+00 1.930493584744551683e+00 2.339311928231948556e+00 2.063613766883245049e+00 1.942315632663363933e+00 7.575714658798960777e+00 2.965916208768510920e+00 7.104304841182607966e+00 2.315386473466914286e+00 2.069063387431896217e+00 7.116334298287616100e+00 7.548569355195997588e+00 8.097876569781655931e+00 1.938987474642014375e+00 2.335266232116298468e+00 7.201932913560794347e+00 1.948832803240741596e+00 7.574741275752099767e+00 8.093998782679230786e+00 7.126676250751377673e+00 2.332276701029144750e+00 7.199986202613301245e+00 7.132570472378840343e+00 7.570125706969967005e+00 2.499173910995905690e+00 1.101699364235311007e+00 4.960521599957099070e+00 1.600920839128094464e+00 1.106625858010670482e+00 1.020177064002752232e+01 2.521717333181260123e+00 6.300687861950702739e+00 4.940627084652336798e+00 1.628152515318292526e+00 6.309230066338483489e+00 1.018719378503094752e+01 7.646194364416539102e+00 1.106563673380664747e+00 4.954561443399308374e+00 6.748260074593685154e+00 1.118149998833137149e+00 1.019555451464285412e+01 7.653786677057859755e+00 6.289278495440584926e+00 4.955838701852613326e+00 6.759362657394357043e+00 6.300824294058583241e+00 1.019551250777634266e+01 3.944103585276246271e+00 3.682822417676404392e+00 7.287594631777845056e-01 3.043519572677538143e+00 3.692858320420773222e+00 5.969843411466317029e+00 3.951793298837959600e+00 8.874721131474016644e+00 7.343084245246741526e-01 3.058469432104733876e+00 8.887155671969825477e+00 5.972361643701380451e+00 9.073173488851674406e+00 3.691212752887953030e+00 7.221825405092969774e-01 8.174328455325793996e+00 3.702632437467807236e+00 5.967075583127988025e+00 9.044707404040009280e+00 8.897728313223849383e+00 7.428810741689587660e-01 8.146493171938685052e+00 8.909773923933681061e+00 5.983143673391754014e+00 1.808113265254763236e-01 1.558577523055764136e+00 4.032326030844411768e+00 -7.102927845474082957e-01 1.568775539858614287e+00 9.273751718935610455e+00 1.917325373777037101e-01 6.746213729228470513e+00 4.034429494548141371e+00 -7.056211040772302212e-01 6.757527448045539842e+00 9.272422926964230427e+00 5.319347770896631467e+00 1.573389849494869264e+00 4.036995180113984283e+00 4.421624240545360962e+00 1.583284223027544124e+00 9.275789824841531583e+00 5.327962213186295592e+00 6.742816692143361657e+00 4.040294678450053745e+00 4.430489682745870184e+00 6.750288659756518150e+00 9.276381566060384998e+00 1.126441645624542742e+00 4.155054794587826450e+00 1.643431419310029673e+00 2.321579656225282451e-01 4.160554317937808833e+00 6.887190731342283101e+00 1.115963863778879794e+00 9.338266173657451930e+00 1.644704632073704209e+00 2.223310787283812873e-01 9.343701799336283642e+00 6.884024129599729314e+00 6.254552288079119116e+00 4.144667870964290124e+00 1.651131319423318367e+00 5.361688898234245215e+00 4.157250198427663079e+00 6.886644495283953837e+00 6.765654015012830813e-01 4.077582581249507676e+00 4.263743191701629520e+00 -2.219387977983906801e-01 4.089278290834973184e+00 9.504176050218008598e+00 6.635862464085782175e-01 9.264906172330274359e+00 4.267982183326648027e+00 -2.344966961938600991e-01 9.273269128359435953e+00 9.505288142975464538e+00 5.815433304232185741e+00 4.080638526145795808e+00 4.272343056984278853e+00 4.917908933404620875e+00 4.090227031913994615e+00 9.515658020328338296e+00 5.811443461900505092e+00 9.265858785406837939e+00 4.282055744923545682e+00 4.910988800914778629e+00 9.279154838328226518e+00 9.523276766125167825e+00 6.323766823511327573e-01 1.482250861260181685e+00 1.412973898595449418e+00 -2.627659766687230336e-01 1.487066163282655618e+00 6.652253657500225792e+00 6.273876795055566280e-01 6.674550963690740524e+00 1.411679970389754679e+00 -2.691748457861502519e-01 6.678945750795484138e+00 6.650689827508641017e+00 5.798686305176610212e+00 1.422093481351160982e+00 1.423206481033501225e+00 4.902084111345645923e+00 1.425008035030941089e+00 6.661967670875460712e+00 5.777945700250219474e+00 6.681175502223750229e+00 1.416268928009504879e+00 4.879721594385312500e+00 6.693780051058929814e+00 6.655361018504941661e+00
4.673008039347755549e+00 3.043220351604785545e+00 2.627064651368458570e+00 3.775144846334214321e+00 3.047717843735625820e+00 7.869334158032156523e+00 4.680866506232976398e+00 8.240989684015803007e+00 2.633258329251299212e+00 3.786063168967089609e+00 8.248605710815985148e+00 7.873265619232259205e+00 9.814451239995975129e+00 3.034612770102101287e+00 2.620195586740556415e+00 8.916716764839245357e+00 3.047089205738369611e+00 7.861267891562240706e+00 9.813061624963095753e+00 8.227246058153989239e+00 2.621662074212899096e+00 8.912627475483942519e+00 8.238021971045009550e+00 7.862725382049688960e+00 1.765156942628874237e+00 4.424697789060095254e-01 3.062081813349204040e+00 8.675132798113239785e-01 4.526944845523921956e-01 8.301226174921801260e+00 1.768159087874599189e+00 5.633637156134995827e+00 3.056100499326167341e+00 8.742554184241846382e-01 5.643113253977739774e+00 8.295996283529584403e+00 6.888765100408261510e+00 4.496280956727261580e-01 3.065464923984427603e+00 5.991600867312094181e+00 4.604150029325042581e-01 8.306938872749672242e+00 6.903708852825780617e+00 5.630189627214007508e+00 3.061565593487539427e+00 6.006254840365633285e+00 5.639336896569988156e+00 8.303500969890277972e+00 2.217158497915459492e+00 2.591833025031587301e+00 4.414838448650981184e-01 1.318855497085152706e+00 2.597378648551002200e+00 5.681782313813125818e+00 2.227001191674426561e+00 7.770769817168525329e+00 4.444649738317910104e-01 1.330857333960706601e+00 7.783543485111713345e+00 5.682147324508400210e+00 7.360239062292613710e+00 2.586514911734046684e+00 4.447221309754719187e-01 6.462775092836099411e+00 2.596491264020003076e+00 5.685646754018854665e+00 7.354203215753814860e+00 7.767330398962868365e+00 4.385583945651368998e-01 6.459570267134136401e+00 7.774555027231508042e+00 5.676986072283942697e+00 5.131881813458381458e+00 5.187319365685519656e+00 3.528159073452680141e-04 4.233797491712425476e+00 5.197976613997014717e+00 5.242396699259766812e+00 5.116992393497768354e+00 1.037001781197790073e+01 1.035561910292120275e-02 4.221819484007788503e+00 1.037785163061571225e+01 5.248002637259146397e+00 8.478266140778361049e+00 5.202445440579316127e+00 1.047640954716961481e+01 9.373869667576224529e+00 5.192590645002719718e+00 5.237594444706905605e+00 8.463677749812053008e+00 1.038814665143821436e+01 1.047835968704783660e+01 9.358921254653148836e+00 1.038057990232831074e+01 5.237462439643750578e+00 3.488781417125430551e+00 4.517359415978496884e+00 3.359954102586920399e+00 2.587147736483762728e+00 4.535616474275387944e+00 8.591490391561210416e+00 3.473315540071400420e+00 9.704028167705049057e+00 3.348333185659011058e+00 2.571951128394212471e+00 9.719680867049733664e+00 8.586041889774298497e+00 8.624871422035386814e+00 4.535182443756276882e+00 3.343830029128594283e+00 7.736177131252147454e+00 4.545091988634231583e+00 8.586436458563250440e+00 8.594735050423734535e+00 9.706963569156116023e+00 3.348959684483173938e+00 7.699513522768756779e+00 9.715340612066633241e+00 8.579136197725834023e+00 2.963157879783564486e+00 1.926164380166865087e+00 2.339986044862867320e+00 2.062634672966215721e+00 1.940313055621537552e+00 7.573076276663410766e+00 2.966745826309785894e+00 7.103117771427918115e+00 2.318447715066773274e+00 2.069623820885877041e+00 7.117671270506292558e+00 7.545108254268526160e+00 8.098366811417326616e+00 1.939086381421365024e+00 2.333956239525611931e+00 7.203063140204903902e+00 1.949271605372144611e+00 7.573181102549400023e+00 8.094407940734496876e+00 7.130336988497419703e+00 2.333003467044111545e+00 7.202976419928114993e+00 7.132630000406632753e+00 7.568976247608311780e+00 2.499603666477105968e+00 1.104258340047129749e+00 4.959299367155663774e+00 1.599681156270466476e+00 1.104635903395840835e+00 1.020208219587070531e+01 2.522457258751868991e+00 6.303356027256302951e+00 4.938444814263051263e+00 1.631931264341021981e+00 6.310944997533876055e+00 1.019184298569539493e+01 7.645524644681318094e+00 1.105373301686067844e+00 4.954292388191298357e+00 6.746259706350701713e+00 1.119050514093025361e+00 1.019654330135350762e+01 7.653426169190149508e+00 6.288771180555535523e+00 4.958879090920598642e+00 6.761161767199010519e+00 6.302367353598089750e+00 1.019851146945804743e+01 3.947173497943472054e+00 3.681714361689417014e+00 7.302610783566194641e-01 3.042629114060385387e+00 3.692290732490655980e+00 5.972693749585334722e+00 3.949113431745400415e+00 8.873051463933041560e+00 7.352394039384271274e-01 3.059069337517500653e+00 8.888415124545991475e+00 5.971630622016255607e+00 9.073453812085492842e+00 3.691541048935063518e+00 7.202422981043298256e-01 8.172367384445378136e+00 3.704894979592502136e+00 5.970293144958935372e+00 9.045927501845836716e+00 8.896389261781486368e+00 7.436725301556796897e-01 8.146082680949021437e+00 8.910985031835153336e+00 5.984452495304160458e+00 1.806114471441166713e-01 1.558716814634627301e+00 4.031585864586761936e+00 -7.050131356757959322e-01 1.569617414989369575e+00 9.274712007463447705e+00 1.912723698898052271e-01 6.746174438665904383e+00 4.035309438941142801e+00 -7.068312698015318807e-01 6.759296437806340485e+00 9.271561083506339784e+00 5.317197111003514998e+00 1.577149184646327473e+00 4.036711346988447247e+00 4.418343695509872937e+00 1.587432482255211275e+00 9.274555414192596103e+00 5.326751572805230595e+00 6.744238145698808751e+00 4.042153150848945664e+00 4.428390151336785152e+00 6.749696638612364019e+00 9.274591683710301737e+00 1.127401153031699188e+00 4.158614133617244413e+00 1.642498385972321673e+00 2.354274363331273767e-01 4.160117730856459417e+00 6.890271778727983687e+00 1.115442785060611453e+00 9.341927812060358605e+00 1.646621212668335943e+00 2.247608503920388023e-01 9.343313639220300004e+00 6.885544965352480951e+00 6.253882327124189011e+00 4.144118042446596206e+00 1.651461684251956497e+00 5.364739182693772257e+00 4.159777291299219470e+00 6.882792811712515224e+00 6.752652300718714473e-01 4.080070955758555939e+00 4.262220678464624157e+00 -2.251395292023776196e-01 4.093966945489018627e+00 9.503361166168200924e+00 6.627655032232264709e-01 9.265488896142345610e+00 4.271161493563562672e+00 -2.368167426557930000e-01 9.272719374949710769e+00 9.506048179555483202e+00 5.817663395600018994e+00 4.080398742795137146e+00 4.272113717855776649e+00 4.919198291453851901e+00 4.090100312014493866e+00 9.519008393126693335e+00 5.813873723099868940e+00 9.264778995233282188e+00 4.281777206445122275e+00 4.909548042444262350e+00 9.281875658767582138e+00 9.524484015546958560e+00 6.304362922232030764e-01 1.485909095217410325e+00 1.411430198344231002e+00 -2.632653922875263230e-01 1.486064275060350992e+00 6.650274464727981893e+00 6.280268012989448367e-01 6.677932152965615487e+00 1.412857035562412378e+00 -2.685046099589910584e-01 6.677226295829389535e+00 6.651151518482741665e+00 5.797355754704252462e+00 1.426771677113575665e+00 1.421491978234135312e+00 4.900755000570548248e+00 1.423125364081617494e+00 6.659299110468782423e+00 5.780506458247338664e+00 6.679094342389034544e+00 1.414451321830333397e+00 4.880651891639876894e+00 6.694787999664731259e+00 6.652900289623854491e+00
4.673557864644139137e+00 3.044650011962330094e+00 2.626573465654575390e+00 3.775044900670557091e+00 3.046638513517115676e+00 7.870095116075499497e+00 4.680416435995764957e+00 8.241379579997728300e+00 2.633237886530023886e+00 3.786503253653294099e+00 8.248045894519290044e+00 7.873376213910805888e+00 9.814521464166789499e+00 3.033382829253258528e+00 2.620246714758141415e+00 8.916216570185985901e+00 3.047359762501762326e+00 7.861987547276199528e+00 9.814481621620451790e+00 8.226866673047082301e+00 2.622042700583183894e+00 8.912147217063697724e+00 8.238282830521246325e+00 7.863775050656175658e+00 1.765226957421623943e+00 4.425696382220886127e-01 3.061911736761196323e+00 8.670632819926741286e-01 4.531739729074852341e-01 8.300755650872957858e+00 1.767999136245051783e+00 5.633247243565869589e+00 3.056230820715979402e+00 8.754454508235319787e-01 5.642723671076708136e+00 8.296206873300771889e+00 6.888265140660355890e+00 4.499075745872672116e-01 3.064994571152182434e+00 5.990810608732317633e+00 4.613452233780725442e-01 8.307347873116098569e+00 6.904059059857403646e+00 5.629968942217844941e+00 3.060735862707423927e+00 6.006164862863562881e+00 5.638947115085296780e+00 8.303761305142044691e+00 2.218158290662563203e+00 2.593182988539802114e+00 4.412328209831103409e-01 1.318995607133315096e+00 2.596758711720061896e+00 5.681822903221198651e+00 2.227101368256840352e+00 7.769330280656133070e+00 4.449562978407938796e-01 1.331177403339178555e+00 7.783743056887918677e+00 5.681607207207152399e+00 7.360309107886028990e+00 2.586264934235358748e+00 4.447323713364313424e-01 6.462404973364188621e+00 2.596481746038814542e+00 5.686256689248650353e+00 7.353723101305225107e+00 7.767670533803447519e+00 4.388079910524492755e-01 6.460060497087105169e+00 7.773764758626165339e+00 5.676586885454722342e+00 3.338834708623016567e+00 5.206159593915847594e+00 1.047907344256028139e+01 4.233187326307954912e+00 5.198406878008665188e+00 5.242816188305468472e+00 5.116741952337131139e+00 1.037077911359134674e+01 1.184488035549669319e-02 4.222279409754889024e+00 1.037778211681769136e+01 5.248442791935410412e+00 8.478316211724321150e+00 5.202594997165415514e+00 1.047590942145749437e+01 9.373419685157006853e+00 5.192550513996280870e+00 5.237544391488065720e+00 8.464157781026058203e+00 1.038738725949396269e+01 1.047893047063957006e+01 9.358731222474926170e+00 1.038076984793225144e+01 5.237442229775288283e+00 3.489421426866588849e+00 4.512973298664259225e+00 3.364108204467829211e+00 2.585307730237368595e+00 4.535576187130225811e+00 8.591560061921940772e+00 3.474655662616226603e+00 9.702099537909102622e+00 3.349565199731589171e+00 2.570930863680692902e+00 9.720820889606940796e+00 8.586280654267907764e+00 8.624921415892830012e+00 4.536081701123046983e+00 3.342999224216157472e+00 7.740146800420120599e+00 4.546203287991727571e+00 8.587036242219975080e+00 8.592955132167960031e+00 9.707202650238746955e+00 3.348319113457694396e+00 7.698414648624851253e+00 9.715045529669650293e+00 8.573756244009041794e+00 2.964138570780750381e+00 1.921855157465576669e+00 2.340640143386592875e+00 2.061665579048808095e+00 1.938310480484955134e+00 7.570437896516127196e+00 2.967575445841051263e+00 7.101930692615708196e+00 2.321498956670931868e+00 2.070194252349488284e+00 7.119008253687733045e+00 7.541657155325019346e+00 8.098847051063387426e+00 1.939185295352988891e+00 2.332656244942361123e+00 7.204183362869413187e+00 1.949710423713338026e+00 7.571640927349836403e+00 8.094807100693582669e+00 7.133987724342501835e+00 2.333730240128709887e+00 7.205936639060960047e+00 7.132669531784776140e+00 7.567836800393354935e+00 2.500033421958306690e+00 1.106817315858948492e+00 4.958077134354227589e+00 1.598451473499006958e+00 1.102655941624454794e+00 1.020238374464855902e+01 2.523207186138992864e+00 6.306004203533231767e+00 4.936272563973523653e+00 1.635690019247931781e+00 6.312649906808029066e+00 1.019647219144980710e+01 7.644844923043033091e+00 1.104192928081942915e+00 4.954023321937127022e+00 6.744259341914601968e+00 1.119931029361480590e+00 1.019753210617995265e+01 7.653065663312427880e+00 6.288263856612968716e+00 4.961909479992884897e+00 6.762940878994412763e+00 6.303910400269592706e+00 1.020150042716752026e+01 3.950223412601446160e+00 3.680606292834424309e+00 7.317526895632243678e-01 3.041728655530159919e+00 3.691733133593493754e+00 5.975534076662490257e+00 3.946453558855207433e+00 8.871401809251505455e+00 7.361803692086179574e-01 3.059669240940276591e+00 8.889674586179676652e+00 5.970909600326830713e+00 9.073734133329324436e+00 3.691869354039690965e+00 7.183120556950628455e-01 8.170416315468026269e+00 3.707147523626723729e+00 5.973510717836045814e+00 9.047137599825139986e+00 8.895070190310276459e+00 7.444439660469431841e-01 8.145672188055916862e+00 8.912206139732344212e+00 5.985761308158671135e+00 1.804115658593145599e-01 1.558866106209207292e+00 4.030845689271213672e+00 -6.997434868038042710e-01 1.570459288214880900e+00 9.275672294003019402e+00 1.908222043915174526e-01 6.746135140951065701e+00 4.036179385326708946e+00 -7.080314376027500023e-01 6.761055447591702183e+00 9.270719251086008583e+00 5.315046455003830772e+00 1.580898510744551455e+00 4.036417522925107804e+00 4.415063152377827649e+00 1.591570741487162488e+00 9.273321012601556390e+00 5.325540936404147274e+00 6.745659581139221928e+00 4.043991623256436796e+00 4.426310621830383596e+00 6.749094621282980988e+00 9.272801814394643571e+00 1.128370664245361032e+00 4.162153474560472688e+00 1.641565372738671424e+00 2.386969089471688843e-01 4.159671143779394953e+00 6.893352835171581816e+00 1.114911708246164146e+00 9.345579448562308045e+00 1.648537800332598557e+00 2.271806240460653714e-01 9.342925468141555001e+00 6.887055799121267974e+00 6.253212364179271177e+00 4.143568222986419691e+00 1.651802049076295020e+00 5.367769465164067277e+00 4.162304389417805339e+00 6.878951124160245456e+00 6.739750605455230303e-01 4.082549332177132229e+00 4.260698176273779225e+00 -2.283202587902278535e-01 4.098635613019636637e+00 9.502556304206414950e+00 6.619547620274855992e-01 9.266071612802143420e+00 4.274330805793041144e+00 -2.391267911080949549e-01 9.272169632502746950e+00 9.506818218119466479e+00 5.819883483161347293e+00 4.080178957530666395e+00 4.271884358623217359e+00 4.920487653483061052e+00 4.089973573999957424e+00 9.522338765933648475e+00 5.816293984386158300e+00 9.263709194092683674e+00 4.281488656924835823e+00 4.908127285876429546e+00 9.284586483021710634e+00 9.525691278003174389e+00 6.285059039983368345e-01 1.489557331084166769e+00 1.409886509139174127e+00 -2.637648079928770484e-01 1.485052395899847388e+00 6.648305281009333711e+00 6.286659230923329345e-01 6.681313342240490449e+00 1.414034100735070076e+00 -2.678443760348951375e-01 6.675516838953766907e+00 6.651613198410679217e+00 5.796035208038400555e+00 1.431429874789801548e+00 1.419777495538826928e+00 4.899425885815469783e+00 1.421242711247328039e+00 6.656650550053504922e+00 5.783067214254466570e+00 6.677013191611836262e+00 1.412643715646862530e+00 4.881582181021028255e+00 6.695805975438800850e+00 6.650469551671972290e+00