-9.541456513099999484e+02
-9.541406706999999869e+02
-9.541258708899999874e+02
-9.541014312199999949e+02
-9.540676157200000489e+02
-9.540247884299999441e+02
-9.539733973800000513e+02
-9.539139660700000150e+02
-9.538471089299999903e+02
-9.537734846800000241e+02
-9.536938370899999882e+02
-9.536089281600000049e+02
-9.535195856799999774e+02
-9.534266436799999838e+02
-9.533309725599999638e+02
-9.532334297300000117e+02
-9.531348943299999519e+02
-9.530362146899999516e+02
-9.529382055400000127e+02
-9.528416717799999560e+02
-9.527473526100000072e+02
-9.526559659299999794e+02
-9.525681412799999634e+02
-9.524844540100000359e+02
-9.524054268099999945e+02
-9.523314811200000349e+02
-9.522629834900000105e+02
-9.522002138599999626e+02
-9.521433726100000285e+02
-9.520925842000000330e+02
-9.520478930399999626e+02
-9.520092649399999800e+02
-9.519766018300000496e+02
-9.519497447999999622e+02
-9.519284632400000419e+02
-9.519124766500000305e+02
-9.519014568500000451e+02
-9.518950370000000021e+02
-9.518928268299999900e+02
-9.518943962499999998e+02
-9.518993173100000149e+02
-9.519071326600000020e+02
-9.519174053000000413e+02
-9.519297050599999466e+02
-9.519435987800000021e+02
-9.519586833900000329e+02
-9.519745874400000503e+02
-9.519909586899999567e+02
-9.520074810300000081e+02
-9.520238792100000182e+02
-9.520399255700000367e+02
-9.520554138500000363e+02
-9.520701950999999781e+02
-9.520841506900000013e+02
-9.520972081600000365e+02
-9.521093215399999963e+02
-9.521204922699999997e+02
-9.521307339200000115e+02
-9.521401011399999561e+02
-9.521486608999999817e+02
-9.521565055600000278e+02
-9.521637268800000129e+02
-9.521704404500000010e+02
-9.521767573800000264e+02
-9.521827769000000217e+02
-9.521886032200000045e+02
-9.521943386200000532e+02
-9.522000623500000529e+02
-9.522058424399999694e+02
-9.522117264700000305e+02
-9.522177458300000126e+02
-9.522239012400000320e+02
-9.522301911900000277e+02
-9.522365961299999526e+02
-9.522430585299999848e+02
-9.522495142000000214e+02
-9.522558950100000175e+02
-9.522621166100000210e+02
-9.522680700700000216e+02
-9.522736627000000453e+02
-9.522787780099999964e+02
-9.522833163599999580e+02
-9.522871739800000341e+02
-9.522902491500000224e+02
-9.522924596999999949e+02
-9.522937252699999817e+02
-9.522939879399999654e+02
-9.522931899999999814e+02
-9.522913054599999896e+02
-9.522883295799999814e+02
-9.522842629799999941e+02
-9.522791351299999860e+02
-9.522729910100000552e+02
-9.522658908900000370e+02
-9.522579157500000520e+02
-9.522491528199999493e+02
-9.522397149600000148e+02
-9.522297130599999946e+02
-9.522192753199999515e+02
-9.522085297500000252e+02
-9.538923827500000243e+02
-9.538874507000000449e+02
-9.538726543599999559e+02
-9.538481289699999479e+02
-9.538141089299999749e+02
-9.537709173900000224e+02
-9.537189672700000074e+02
-9.536587628099999847e+02
-9.535908754099999669e+02
-9.535159631200000376e+02
-9.534347417799999675e+02
-9.533479929200000242e+02
-9.532565334600000142e+02
-9.531612368999999489e+02
-9.530629842900000313e+02
-9.529626802899999802e+02
-9.528612498600000436e+02
-9.527596108100000265e+02
-9.526586621400000467e+02
-9.525592762999999650e+02
-9.524622979399999849e+02
-9.523685303400000066e+02
-9.522787119700000176e+02
-9.521935271900000544e+02
-9.521135898100000077e+02
-9.520394385800000236e+02
-9.519715233900000158e+02
-9.519102183700000523e+02
-9.518558031999999685e+02
-9.518084700699999985e+02
-9.517683310099999971e+02
-9.517353925099999969e+02
-9.517095776300000125e+02
-9.516907362399999784e+02
-9.516786381800000072e+02
-9.516729717700000037e+02
-9.516733652499999607e+02
-9.516793923699999596e+02
-9.516905652599999712e+02
-9.517063652000000502e+02
-9.517262327199999845e+02
-9.517495890500000542e+02
-9.517758337300000449e+02
-9.518043677099999513e+02
-9.518345988999999463e+02
-9.518659199700000499e+02
-9.518977730999999949e+02
-9.519296141800000441e+02
-9.519609156400000529e+02
-9.519912094000000025e+02
-9.520200558000000228e+02
-9.520470662599999514e+02
-9.520719024300000228e+02
-9.520942779199999677e+02
-9.521139519399999926e+02
-9.521307424699999729e+02
-9.521445249399999966e+02
-9.521552107300000216e+02
-9.521627704999999651e+02
-9.521672241300000223e+02
-9.521686191799999506e+02
-9.521670579899999893e+02
-9.521626722800000380e+02
-9.521556286600000476e+02
-9.521461018799999465e+02
-9.521343124400000306e+02
-9.521204835600000251e+02
-9.521048581100000092e+02
-9.520876752499999611e+02
-9.520691869400000087e+02
-9.520496360399999958e+02
-9.520292719200000420e+02
-9.520083312900000010e+02
-9.519870377099999814e+02
-9.519655959399999574e+02
-9.519442214499999864e+02
-9.519230879100000493e+02
-9.519023635400000103e+02
-9.518821869099999731e+02
-9.518626922099999774e+02
-9.518439857900000334e+02
-9.518261664399999518e+02
-9.518092986699999756e+02
-9.517934507500000336e+02
-9.517786700899999914e+02
-9.517649854899999582e+02
-9.517524230699999634e+02
-9.517409974400000010e+02
-9.517307125300000052e+02
-9.517215620199999648e+02
-9.517135446800000409e+02
-9.517066456400000334e+02
-9.517008520199999566e+02
-9.516961431199999879e+02
-9.516925072899999805e+02
-9.516899205600000187e+02
-9.516883663200000001e+02
-9.516878204600000117e+02
-9.516882689699999673e+02
-9.516896825100000115e+02
