-3.513839282180045544e-04 2.060894201543538983e-03 -4.393660244377261696e-05 -3.503865065880189321e-04 2.061905260660465596e-03 -3.193731456681441253e-05 -6.779891073617940866e-04 -5.513096349590768027e-05 -2.084985076764792417e-06 -6.759916857697244536e-04 -5.411971385456891651e-05 9.914501626691555260e-06 -2.119458482314321140e-03 3.393740700657626227e-03 -9.464960636187297631e-04 -2.140461440538674737e-03 3.396747567380804540e-03 -9.345029615039666471e-04 -1.736765219612509308e-03 -1.742492990626930312e-04 -1.014188224009957571e-03 -1.755767788569463075e-03 -1.722429566140861173e-04 -1.003193818022586614e-03 2.905220749999930241e-03 -1.060532118526546098e-03 -9.346132538884009081e-05 2.907219166586939504e-03 -1.059525397643898024e-03 -8.646183653541625270e-05 1.380151395102280571e-03 2.073933129245095447e-04 -9.599136108793459785e-04 1.382149413691314546e-03 2.084018453106338672e-04 -9.509141228859092085e-04 -2.968144188479181623e-04 -3.795727018991071995e-04 -5.697155121084417420e-04 -2.928154053397758307e-04 -3.785683172228498472e-04 -5.657156243120411380e-04 -9.060309055131872706e-04 5.791793521270592333e-05 9.976728439549063245e-05 -8.990324804610106248e-04 5.992470253733247831e-05 1.057668620217806879e-04 1.131856473162110716e-03 1.148872807311216793e-03 -3.788155181376171325e-04 1.127856862657004638e-03 1.147871139890173624e-03 -3.798154072239982100e-04 2.168099007451576403e-03 -1.218980472583662458e-03 6.705358315162559049e-04 2.167099007489492555e-03 -1.218980663108074460e-03 6.705356326897577790e-04 1.562750667973389178e-03 1.434189390955197029e-03 -1.199880853263569729e-04 1.564749075905653769e-03 1.434197018017926029e-03 -1.119876911133086685e-04 -1.178888290118759860e-03 3.010053533813141966e-04 -8.505075994114668801e-04 -1.176890271529726101e-03 3.020138857674384649e-04 -8.415081114180300017e-04 5.305622978086024788e-05 6.102245493192960278e-04 -8.675425268478210213e-04 5.605722466205300813e-05 6.102205921338411682e-04 -8.725419282183591698e-04 5.604758229063031612e-04 -2.180169532573507461e-03 -3.039139042158394669e-04 5.624764111726900931e-04 -2.181170962599817201e-03 -3.059125999132382076e-04 -1.519087450754091082e-03 -2.696570762159012356e-04 6.979422456107149328e-04 -1.514087061600439274e-03 -2.706570289172367089e-04 6.969441459628171508e-04 -1.583033286765804645e-03 -5.646600858997066503e-04 7.081967243522021551e-04 -1.578032698613164760e-03 -5.656609443527803836e-04 7.061986251342978462e-04 5.020466856265076326e-04 1.767296437358728566e-04 -4.040603401429418385e-04 5.050498175680960501e-04 1.707211603617849751e-04 -4.140543046258045789e-04 -1.001477164258599093e-03 2.298988544899045663e-03 1.967184787749235114e-04 -9.984744216602417250e-04 2.293980966848352832e-03 1.877236080724492908e-04 1.336430044033775537e-03 -1.028811994596618524e-03 -1.176802709538861923e-03 1.350434127279503309e-03 -1.039818380060460179e-03 -1.186789957982155135e-03 1.208584308624333081e-03 1.066199042188593644e-03 1.069275255200066764e-03 1.221587993910000416e-03 1.055194277703816073e-03 1.061287807070288372e-03 -2.152054030083822619e-03 -4.807467922291942418e-04 7.320074954270050982e-04 -2.150053813851175548e-03 -4.787491292922707847e-04 7.290060827907459719e-04 -1.156482803020241357e-03 9.811279983417962088e-04 1.487881842482213042e-03 -1.156482387712774338e-03 9.831243744781578350e-04 1.483880032622950920e-03 1.307075728440475952e-04 9.555281475968384819e-04 5.551607781097040199e-04 1.307081871505025024e-04 9.575236179814617396e-04 5.501589686804354796e-04 1.613996228083818679e-03 3.989785476110737023e-04 -3.630403480019318710e-04 1.613996842390273559e-03 4.009740179956969601e-04 -3.680421574312003571e-04 -1.056231119854826508e-03 -3.578378836379579532e-04 1.505114570550602961e-03 -1.057232296501347743e-03 -3.558344520121032792e-04 1.509112558424894820e-03 -8.720410927158225899e-04 -8.422482496833339893e-04 1.013589768358162755e-03 -8.730418800191133179e-04 -8.412457233808744205e-04 1.016588662452065986e-03 9.828867291764530317e-04 -1.194260649477408859e-03 1.714278034251914959e-03 9.838849554571361261e-04 -1.192254119547515780e-03 1.721276418489222759e-03 1.093145908776977943e-03 -9.786074698671339608e-04 2.041039981097897177e-04 1.092143944789249720e-03 -9.756013214144077699e-04 2.111010789044831775e-04 4.366826845633156248e-04 -1.480742293341256403e-03 -2.014572781934931799e-03 4.376825028359026919e-04 -1.478743009425268536e-03 -2.015574394257676431e-03 7.550519979202230912e-04 4.924797187338610409e-04 -7.332961250903323328e-04 7.550524045729445702e-04 4.934770010503037024e-04 -7.362970295899698122e-04 1.352106244906250499e-03 -1.489933841785250805e-03 8.936189621916938285e-04 1.355106461100982285e-03 -1.487935988323915671e-03 8.906177483819328281e-04 2.515233702428370643e-03 -2.656243446593286955e-05 -1.149475906334583184e-03 2.517233719662030720e-03 -2.456386577727124392e-05 -1.151477319400836001e-03 -1.101226321570247660e-04 -3.961186589019510037e-04 9.963372992900186836e-04 -1.081218362369042434e-04 -3.961219008600797681e-04 9.923376986629890446e-04 -1.582778307035173073e-03 -7.305170499917433015e-06 -1.108308831176057357e-03 -1.581777511077136697e-03 -7.308602982458110797e-06 -1.112308630629585014e-03 -5.869542077957321099e-04 6.862003010003268596e-05 -2.961790833599749944e-04 -5.879535934513614032e-04 7.061530996024403632e-05 -3.011810916157416063e-04 4.820820302518228533e-04 1.445927014491004922e-04 -5.510352681960854152e-04 4.810826445961935058e-04 1.465879813093118561e-04 -5.560372764518519730e-04 -1.688817576498475269e-03 -5.666612101914506039e-04 -3.748229797840260170e-04 -1.688817974496451208e-03 -5.666593986879743007e-04 -3.728229806440130174e-04 -6.611837173540335713e-04 1.095760374932539969e-03 -1.261241159873883143e-04 -6.611845046952402345e-04 1.096763091759411432e-03 -1.231250230669867678e-04 -5.264553583775603753e-04 -1.523260022403662498e-03 -1.279725618944290138e-03 -5.284553669564742619e-04 -1.524259497272405358e-03 -1.278725111237661964e-03 3.075019464448628661e-04 -1.485939011331665564e-03 -1.100593388829540368e-03 3.075027510955602840e-04 -1.484943540518699314e-03 -1.105594292469190901e-03 -3.306832211303054644e-05 9.574743065958749239e-04 -5.738740613421875565e-04 -3.206731850126080281e-05 9.584690621815150245e-04 -5.798747657253462738e-04 -2.973110321935151927e-06 -4.797069024054465285e-04 3.244340432192418426e-04 -6.972513173308060781e-06 -4.797103817583088297e-04 3.214332492032297042e-04 -3.585867430817732361e-04 1.850998881125309400e-03 1.177252602358074170e-03 -3.615863449700499254e-04 1.850996498048597307e-03 1.175252006738566847e-03 9.499050069640749532e-04 4.257679371051106642e-05 4.371506541021221576e-04 9.499042196228682901e-04 4.357951053738255617e-05 4.401497470225237312e-04 -1.238076741667933512e-03 -3.645699853492520874e-04 7.350841499606413417e-04 -1.238077537663885607e-03 -3.645663623422994810e-04 7.390841482406673409e-04 2.991172084361633311e-05 -1.284806677758646234e-04 5.671225678493507479e-04 2.591133165204880735e-05 -1.274805245501172020e-04 5.681208663237467642e-04 7.530766548766767423e-04 -1.530729442467536772e-04 -2.387115950669025310e-04 7.480758677250488875e-04 -1.520711800419419007e-04 -2.357134962789916952e-04
1.482134519380652257e-02 -3.660699085855791124e-02 3.334512061647827708e-02 -2.392101637855510721e-02 3.339943056868013849e-02 -4.198602990406228447e-02 6.446697676806282390e-03 -1.256349517729813195e-02 1.356066812490693170e-02 -3.153145802787631763e-02 4.726485360865108343e-02 -1.784609262525147649e-02 -1.111699701340226627e-03 3.716728740023335364e-02 -2.706689720087055925e-02 3.320486717265987847e-02 1.148785368391619550e-02 -2.039280617725151498e-02 -2.237799142991377457e-02 1.876886026856961973e-02 2.220355642192516077e-02 3.452811275383781825e-02 1.617689317776323152e-06 -4.079814794866726962e-02 1.571629120580364525e-02 5.413749330953960236e-03 1.849823196729823496e-02 1.325529014016955075e-02 -3.695917830399509524e-02 -6.276889069708188780e-03 5.669604555719394076e-03 8.736081169124089441e-03 1.876622359421951935e-02 -3.569775893454511795e-02 4.200699209494971470e-02 -1.129515658085074314e-02 -5.843596836056249785e-03 1.201496062712413375e-02 1.663496171159675741e-02 5.013872414052423371e-03 -1.119708368914733819e-02 -1.880486855242106264e-02 -1.835630233064950356e-03 1.084500270086190092e-02 2.798382386425693480e-02 5.071199032435656784e-02 2.487079620826508630e-02 -8.685438866822593057e-03 1.575615155807377678e-03 -1.430209463668559965e-02 1.061127225567598878e-02 -8.309585487566627238e-03 2.100541682293048662e-02 -1.215568451876613415e-02 -8.777905113117488375e-03 2.001630883747988407e-02 5.488125759103034719e-03 -1.391595146612221133e-02 8.598890506222211377e-03 1.163144728116551063e-02 -5.805957048408840783e-03 3.170519378780579239e-02 1.466713389281328918e-02 7.066958926240980536e-03 6.700830508366010380e-03 -4.141968078139876552e-02 1.850078219249785827e-02 7.519105209357837376e-03 3.952872894030609596e-03 1.167222496690123630e-02 2.354754884096155187e-02 1.453995152872727308e-03 2.639238421775574189e-02 -6.175031019767011041e-03 3.416685979435734460e-02 1.369157466362787290e-02 -1.463165004046259460e-02 -1.904403093685089893e-02 -4.201700498752493351e-02 -1.726778014024802493e-02 -8.583724710541463382e-03 -5.515705695176240445e-03 -1.529212617531069442e-02 -3.209326054988146520e-02 1.919446802408565156e-03 2.302047149185397837e-02 3.101854447367673531e-02 8.180068140405083151e-04 9.389868468539661062e-03 2.617466914777926909e-02 -2.223269729800545630e-02 1.124862665128044219e-02 -1.230561803874002935e-02 -1.603707218217636371e-02 -2.832681889317840984e-02 1.241547104288578084e-02 -5.241889093273793820e-02 4.546085573461807611e-02 -1.897361571387925008e-02 4.291012683749918094e-02 -2.596554362072869479e-02 9.163061348139467030e-03 -3.009153380503250264e-02 2.602534359329437136e-02 -2.141561605828152127e-03 3.326077749511401754e-02 -2.687056103404888985e-02 6.755959823442543935e-03 -5.308820218559971021e-03 -3.071721285423452581e-03 -2.991275519186645769e-03 -8.393657525876459247e-02 2.542568292102881725e-02 -1.142773756388590529e-02 2.504299741370565047e-02 -2.321758562563547984e-03 -2.786914730359508693e-03 -1.264763033492362528e-02 5.344254613085816508e-02 8.272411302614379736e-02 -5.003042345977325861e-03 4.383665403658690285e-02 -4.682372085984779636e-02 3.552051868027884807e-02 2.561329623569628608e-02 2.817888137642137955e-02 -4.427437703090906021e-03 6.281922323053511573e-03 -2.896658337312792153e-02 7.891560895580103992e-05 -3.413476453116962711e-02 5.325195622442677884e-02 -4.669105188540615195e-03 -4.648710362376510218e-03 2.007129006080765610e-02 -3.262625129045257366e-02 -2.210278465718800919e-02 3.249654101793321426e-02 -3.084869399587098285e-02 -3.573848941441431365e-02 1.258323675072946062e-02 -6.518627056434221634e-02 -5.352097763158122912e-02 3.251651869853461330e-02 1.460337109529588444e-02 -2.980982558836815441e-02 1.553907025580172950e-03 8.256107313293703856e-03 2.658701985729801723e-02 1.925056999517205797e-02 1.554605872397891303e-02 -3.050750630422788268e-02 1.385273183340004002e-02 -5.230206551470503729e-02 -1.395189732203037762e-02 -6.175379765658969844e-02 -1.638250890590039685e-02 2.563118391194782464e-02 -1.886476403245141917e-03 3.656044267724860297e-02 -4.874909471695205998e-02 -3.094858323932218533e-02 3.617983330051303958e-03 -1.379793265923389724e-02 -4.704780275373884879e-02 -4.365786767442771804e-02 -3.796739040364998600e-03 -5.236027148307700885e-02 -5.509573992660034281e-02 -8.598253020013603767e-04 -3.570120055951136323e-02 2.077851169858057137e-02 2.638540417664563681e-02 -1.276476921166226457e-02 4.514554586320774360e-02 4.487207566121823726e-02 -1.052866356984163976e-02 1.492552400299137442e-03 -6.014902677991665336e-03 1.304475063413057176e-02 6.847888811037618033e-03 -8.114482149126403185e-03 2.342472250173253598e-02 3.290340490663160727e-02 -4.732692882940979159e-03 -1.761317318446652125e-02 7.949880825390175793e-03 3.070786154277424518e-02 -3.385424623783402781e-02 1.789967130482022009e-02 7.969934830686802897e-04 -1.922516812845446663e-02 1.113102644413624170e-03 4.502838059488635698e-03 -4.830859024337183158e-03 -5.587363739488195036e-02 1.833390917548488597e-02 -9.343728785143536053e-03 1.382630276876101400e-03 1.454019299145776914e-03 -1.462204812586722150e-02 4.364738143887047367e-02 -2.668471641801146987e-02 2.868986784947002294e-02 3.294079727770461014e-02 -5.374772918154811091e-02 2.234238245158492835e-03 2.593493890269680385e-02 -5.323404340005786356e-02 1.108738262143677683e-02 2.099824140777583475e-02 -2.746149913725757022e-02 -4.027896539032711082e-02 3.986014677652028465e-02 1.367294864006077856e-03 2.988694984290251374e-03 -3.051675105733599180e-03 -3.731657764949785488e-02 -1.082808190790247307e-03 -3.201671665470998823e-02 -1.470263654525029093e-02 -3.260806837686473780e-02 2.982389799383854036e-03 -1.723014951716635851e-02 -2.065580915143783516e-02 -2.633770528001156200e-02 -2.190016182193999395e-03 -4.418259465556475217e-03 1.995351990803133010e-02 2.243930003957298261e-02 6.063648902584730521e-03 -4.217559542723969823e-02 -3.030158933324963999e-02 7.225908388733480459e-02 1.307102233739089285e-02 -4.158819913481742736e-02 2.465328030462068595e-02 6.373109907163108934e-02 -5.885103227192779035e-02 3.076000007559254179e-02 2.640196767754892249e-03 3.260887892117435988e-03 -3.932044506592694000e-02 -1.009297928253547957e-03 1.033697563374833157e-02 1.674044361536803152e-02 -6.196974816905401022e-03 3.010736370646919721e-02 -3.830504635817759754e-03 -3.512369103553107490e-03 3.115498306127750111e-02 -7.326394914097870970e-02 -1.918412577713701078e-02 3.626179362671903827e-02 -3.941663499111193979e-03 1.394352215756068485e-02 -2.084930174438104356e-02 2.266660012742006437e-03 1.586965970559583994e-02 -1.743652212871459745e-02 -1.695049522413328864e-03 -4.265381670506442416e-03 2.020728526960877125e-02 1.776185604709034499e-02 -2.804971000958549066e-03 -2.072346646916772145e-02 -5.435790207969992162e-03 4.021779736004876468e-03 6.110468595553551763e-03 -4.746736278519623695e-03 1.277727870028143135e-02 -4.942284885001596573e-02 1.075331212063561706e-02 2.591499687208036543e-02 4.170488442775174831e-02 6.064740886458327290e-02 -6.844723356405159331e-03 1.743975141768101811e-02 2.213185133837145685e-02 -5.163023632115067846e-03 -2.327300172408573557e-03 5.264310315589049855e-02
3.065101763649124081e-02 -7.538239926618528486e-02 6.712240612285087782e-02 -4.847458345049660000e-02 6.481441531461423766e-02 -8.433038842389817269e-02 1.368331269622645972e-02 -2.497059897716998739e-02 2.738735190518872334e-02 -6.212979664894278942e-02 9.435049648575624670e-02 -3.612083742457135316e-02 -5.310226935422148950e-04 7.064238418292122235e-02 -5.249011270564678949e-02 6.851222376808334402e-02 1.950089281431996793e-02 -3.991704626843621539e-02 -4.300222268549337701e-02 3.754314252308194044e-02 4.560845744594739515e-02 7.117303885338592540e-02 1.983197610241837171e-04 -8.084405102817895927e-02 2.824415043097540379e-02 1.203780918405014840e-02 3.800873363426923723e-02 2.389846446916814304e-02 -7.301011459786677094e-02 -1.284212071358413476e-02 9.511912655691305910e-03 1.776990645952591583e-02 3.873781439433823109e-02 -7.353936039817210446e-02 8.352827973248817817e-02 -2.291729999714091359e-02 -1.095332084322714686e-02 2.394071780772765931e-02 3.399515057116348632e-02 1.050171361885918545e-02 -2.252582068544024818e-02 -3.732652341854059141e-02 -2.890074511385746538e-03 2.099091357073891786e-02 5.570243627333015118e-02 1.015701693021509172e-01 4.946599991094800114e-02 -1.805559931828596559e-02 1.941442459938027372e-03 -3.033188739146269047e-02 2.181086888334290985e-02 -1.770098279736732894e-02 4.054903843022206883e-02 -2.385726009816883236e-02 -1.987379778009163225e-02 4.118312125089858278e-02 9.810747669255895365e-03 -3.005489401993685986e-02 1.828537336382354481e-02 2.217546663310460825e-02 -1.315176415246497449e-02 6.205858385307549963e-02 2.987518598818645482e-02 1.249627172198307726e-02 1.181311502825372478e-02 -8.309724873531981748e-02 3.833138128092161007e-02 1.483547381675356415e-02 9.021194528943066171e-03 2.460432541609795451e-02 4.694703342384016348e-02 3.676375459551186990e-03 5.278079751259208419e-02 -1.345024081319954809e-02 6.924171567777399894e-02 2.710693593309311186e-02 -2.920243335334923515e-02 -3.707317153363576256e-02 -8.431861500053394742e-02 -3.178524420915957577e-02 -1.675999698555516795e-02 -1.176774702595373770e-02 -2.885436433356629998e-02 -6.415623446586445067e-02 4.761865321641999167e-03 4.643290762967474533e-02 6.180391749486948555e-02 2.903101392208328260e-03 1.942901523898865959e-02 5.128600190256308450e-02 -4.217359459792126980e-02 2.292123325436686357e-02 -2.401116377415081840e-02 -3.076809479226049263e-02 -5.602516002563173031e-02 2.397963237743289816e-02 -1.053407833604432658e-01 9.095359478946000997e-02 -3.797036041286498687e-02 8.566614080459604430e-02 -5.214241906256974340e-02 1.909628377330224031e-02 -5.922358430066813201e-02 4.995548585238961115e-02 -4.706034725047686385e-03 6.743297154146135619e-02 -5.589297927987526421e-02 1.347905005213255458e-02 -1.193204764055844254e-02 -5.188666206092322659e-03 -4.849676907300026589e-03 -1.699204220114471087e-01 5.143370743669520989e-02 -2.204840964260591785e-02 4.890835495446239217e-02 -5.392732134885357131e-03 -6.667385677286695976e-03 -2.720267281844540586e-02 1.055881759316115720e-01 1.637340204263232901e-01 -7.642158823753321222e-03 8.872918015094451161e-02 -9.428592793335471844e-02 7.300401696311023536e-02 5.154578246656894847e-02 5.615486418965915522e-02 -7.573317230317682877e-03 1.166932196874785090e-02 -5.988310234046555908e-02 1.802193400267155902e-03 -6.929697442025435639e-02 1.056671699258887182e-01 -9.483936862734677203e-03 -1.018492458679121603e-02 3.961735475451431260e-02 -6.536229218540220987e-02 -4.516571576034368596e-02 6.485492978275399223e-02 -6.325824738920630963e-02 -7.218430310714933629e-02 2.513680353945503196e-02 -1.321715905941531488e-01 -1.071319945511963745e-01 6.536776108521684392e-02 3.008796334068696010e-02 -5.944863913762227225e-02 1.831833970162619236e-03 1.800541928927266305e-02 5.364997892189229955e-02 3.701600541519841497e-02 3.178111636800025341e-02 -6.035544862043038666e-02 2.707900310628536672e-02 -1.036192556725167579e-01 -2.705677399864131472e-02 -1.236921665937663478e-01 -3.353293766049291608e-02 5.258570832819011581e-02 -5.444304958395537915e-03 7.201300399473911651e-02 -9.616709576743583121e-02 -6.376959339144723515e-02 6.402802260826668396e-03 -2.649922647783279142e-02 -9.431976468527303314e-02 -8.837398138982878459e-02 -6.526484470224340299e-03 -1.045057198949900235e-01 -1.111110683136530414e-01 2.981045528817528488e-04 -7.037641126026729366e-02 4.104242379309482741e-02 5.417022786483321334e-02 -2.385490763469960696e-02 8.958601916034544810e-02 8.919782154457314705e-02 -2.016897222727766226e-02 2.164055331223175421e-03 -1.266718346249964128e-02 2.694891555611802353e-02 1.207070336571368363e-02 -1.476920201601116152e-02 4.582379899208707114e-02 6.457884472227351513e-02 -8.312778680640712028e-03 -3.650663525913021984e-02 1.318551756503705784e-02 6.157517961730647055e-02 -6.663417657357628698e-02 3.325718999548470806e-02 1.424345075017000029e-03 -3.752068808952610524e-02 2.316311404706269082e-03 9.355906017565506980e-03 -1.053101771278109472e-02 -1.125272292042643896e-01 3.760764674514534278e-02 -1.981746451752348578e-02 4.286040576537122372e-03 3.021232278182379039e-03 -2.824589571420148965e-02 8.849351720640410979e-02 -5.358190092883642619e-02 5.881916731212892546e-02 6.626551475006792202e-02 -1.078157437919933237e-01 5.176843293724248465e-03 5.288684724780245289e-02 -1.076017703242159451e-01 2.341499498787662573e-02 4.121940816834293586e-02 -5.497476134522066848e-02 -8.013303835053038615e-02 7.910221521312228721e-02 2.349163237842176542e-03 6.740616400512152578e-03 -4.119401584615840946e-03 -7.442072757302553576e-02 -2.110413960856833554e-03 -6.226759488488273903e-02 -2.909646848267010907e-02 -6.469906483164274136e-02 6.265190602278731570e-03 -3.619860615049951685e-02 -4.171298421928280181e-02 -5.206527028285736630e-02 -5.390678404486572151e-03 -8.573482006303605532e-03 4.069950404207809541e-02 4.664565887754432150e-02 1.312885541883366224e-02 -8.294284849028699114e-02 -5.851972185738072568e-02 1.458295615026393988e-01 2.594860129859402620e-02 -8.182059146063112853e-02 5.023729449004093323e-02 1.284778949367859080e-01 -1.166773786807307062e-01 6.206327439642193161e-02 5.559564419201501115e-03 5.527912695478628957e-03 -7.854793434394004292e-02 -1.632571750916333867e-03 1.994354864754303847e-02 3.405962586143884696e-02 -1.223290517569110107e-02 6.056924799707837787e-02 -8.224298573797363468e-03 -6.912837708921758771e-03 6.304580237267412568e-02 -1.467325425868298006e-01 -3.814860811753555125e-02 7.053142608705513517e-02 -9.210479456628544587e-03 2.861068418556796458e-02 -4.361771576120081900e-02 3.154201675350469265e-03 3.106147893804255683e-02 -3.520661076843180359e-02 -3.872932013562753288e-03 -9.315778953855257186e-03 4.058434482158986001e-02 3.543940206726405029e-02 -4.448792580387814222e-03 -4.144539377140869785e-02 -1.162435106616977430e-02 9.129616873325472823e-03 1.260355066917462179e-02 -1.014860326724020996e-02 2.551587411136342284e-02 -9.957051909117628496e-02 2.060827266528537580e-02 5.206785544965353979e-02 8.398694347565817397e-02 1.214373423477744657e-01 -1.462448135469036382e-02 3.503434817818890101e-02 4.428937636539653777e-02 -1.151020804477822373e-02 -4.520210071936896744e-03 1.059658492330028123e-01
4.622164507195112432e-02 -1.141626477888421087e-01 1.011306445627800504e-01 -7.379615921387321087e-02 9.653203079308446399e-02 -1.269211739909604508e-01 2.085395676286532288e-02 -3.756268719410570112e-02 4.124519012067116852e-02 -9.255902468629174928e-02 1.409011319375740034e-01 -5.443906400584772043e-02 -3.183689724635475394e-04 1.039316781290600539e-01 -7.761823302855345996e-02 1.033155829346834448e-01 2.739492745231849116e-02 -5.934027882264079207e-02 -6.396237889699987744e-02 5.634099845041635329e-02 6.861327009731282844e-02 1.072319158488481139e-01 5.819716964432531401e-04 -1.208222400319167028e-01 4.066189810867368998e-02 1.876426739882480418e-02 5.798212084069741951e-02 3.525657645883057550e-02 -1.089027680026805334e-01 -1.924535338093249365e-02 1.350322299946554207e-02 2.676478370431569290e-02 5.873547013422043828e-02 -1.113557629605854138e-01 1.244172146319131450e-01 -3.493386581388263634e-02 -1.540095999969668533e-02 3.525774267362391523e-02 5.151202261267034954e-02 1.637557815093119290e-02 -3.444507810938075149e-02 -5.539956640860470294e-02 -3.602375896398620370e-03 3.077155553391862017e-02 8.305244745294390607e-02 1.514525691688024811e-01 7.313681335770094716e-02 -2.765111677762598780e-02 2.271290183895286179e-03 -4.657759271441575671e-02 3.311465395909405501e-02 -2.656642705637422830e-02 6.005101025882447069e-02 -3.528269317034774671e-02 -3.056566927364975580e-02 6.222302427685532517e-02 1.414856493414558616e-02 -4.584178685484081167e-02 2.790075846961389064e-02 3.253762036129274199e-02 -2.017358996563484511e-02 9.257398032800707999e-02 4.502215579165650544e-02 1.815249388722745688e-02 1.712368364233338505e-02 -1.245089510163484292e-01 5.847792584925152332e-02 2.226904931152891981e-02 1.425147294598468756e-02 3.762338784501580158e-02 7.052954899598364025e-02 5.914607297754999153e-03 7.894036517832152267e-02 -2.089405120207976641e-02 1.037016784670243830e-01 4.009616825949353924e-02 -4.347496916940062073e-02 -5.473966691190262912e-02 -1.264193010977965603e-01 -4.571183598838310380e-02 -2.511976453941816220e-02 -1.818468081373047010e-02 -4.263793182600793957e-02 -9.654804086724619316e-02 6.720184609479447520e-03 7.021730470707031324e-02 9.273177773821093817e-02 4.500313770195393283e-03 2.941857541981614602e-02 7.585228224805354302e-02 -6.191774305002235856e-02 3.484680205534466946e-02 -3.469589903874856912e-02 -4.590806179615956883e-02 -8.344007827342664330e-02 3.499245538461717708e-02 -1.573896452981956018e-01 1.358119116554004635e-01 -5.651235655512747841e-02 1.278169139298887813e-01 -7.759194362094019859e-02 2.954372717793471437e-02 -8.775758649780479592e-02 7.351384455437319498e-02 -7.157052040872709416e-03 1.009220174823701049e-01 -8.423444371066490799e-02 2.029438759960509875e-02 -1.830031189563280716e-02 -7.283414009174636952e-03 -6.544047592546908994e-03 -2.544830793040193662e-01 7.657589074528046991e-02 -3.279201472174370774e-02 7.245761933312230840e-02 -8.192576726889010813e-03 -1.033916501224241107e-02 -4.208002467993302714e-02 1.564996687377146201e-01 2.424529805238982982e-01 -9.614375345537707479e-03 1.335853206553687111e-01 -1.412099691067080220e-01 1.094758089176242899e-01 7.645562526013764681e-02 8.363357172160715280e-02 -1.070522270595674653e-02 1.700189005791090738e-02 -9.061656878449203534e-02 3.875476830037237821e-03 -1.037377691705582972e-01 1.573627995456861328e-01 -1.446171400478512767e-02 -1.562949778822183416e-02 5.880130386251456592e-02 -9.727533660542674043e-02 -6.762100116632117908e-02 9.664893170421134938e-02 -9.506483420057050548e-02 -1.078445312093566089e-01 3.710577852103545682e-02 -1.977630051369046738e-01 -1.592645979199344419e-01 9.727794137738640656e-02 4.527244945454322184e-02 -8.854449739626585325e-02 2.123209417013151908e-03 2.797090401234293006e-02 8.002578832041444545e-02 5.457110614994454406e-02 4.766714512802958104e-02 -8.986362061060212958e-02 4.012489709765156010e-02 -1.538198525480574397e-01 -3.989781395884346021e-02 -1.838375515296028218e-01 -5.060234592180226643e-02 7.933333431199190988e-02 -8.906929950998045131e-03 1.064393167000648038e-01 -1.426309874662696764e-01 -9.625467180776275944e-02 9.489398829585314957e-03 -3.900062321143826088e-02 -1.406648472219427237e-01 -1.320063945874579148e-01 -9.087805207066597390e-03 -1.553061046241865362e-01 -1.664405066507265996e-01 1.953234637508836392e-03 -1.049749357765951407e-01 6.093543753726771844e-02 8.158084244864828583e-02 -3.509778099126163731e-02 1.331995438716864766e-01 1.327008893594351091e-01 -2.927970007683861411e-02 2.617588613280756593e-03 -1.937759361440413025e-02 4.075608971143609288e-02 1.702360851008631951e-02 -2.130548874819896896e-02 6.765371425498885316e-02 9.573024768172555543e-02 -1.215257110550876582e-02 -5.496596620019545548e-02 1.824613808691998018e-02 9.181008687265182489e-02 -9.872656863453307952e-02 4.833172465922991323e-02 1.734844866979071793e-03 -5.559297727907637487e-02 3.561516416503246636e-03 1.400617498974152976e-02 -1.601798426680825158e-02 -1.689238498859968463e-01 5.722526647390987348e-02 -3.047546066400318859e-02 7.230383552582902995e-03 4.650705746897551389e-03 -4.159079142957383679e-02 1.324365856958525656e-01 -8.000236456623006920e-02 8.882985522355146824e-02 9.907901349233599886e-02 -1.609926324213873106e-01 8.365539577191440437e-03 7.999161001372648294e-02 -1.624633764552647075e-01 3.694808562248941969e-02 6.087732079537370306e-02 -8.193944902210080483e-02 -1.192347199465478569e-01 1.175342768014775302e-01 3.134079353925778993e-03 1.071555511193674967e-02 -5.015172047472486912e-03 -1.110190831558030417e-01 -3.401443749224146353e-03 -9.232957020842519347e-02 -4.373960582237668843e-02 -9.606279757341336378e-02 8.932069357337951709e-03 -5.552122800007914388e-02 -6.282296109193620526e-02 -7.755086066325324323e-02 -8.717069839469180834e-03 -1.248054240818470724e-02 6.118455893391700623e-02 7.063383493651738398e-02 2.004720756671234116e-02 -1.221079471615276052e-01 -8.544837118114009811e-02 2.173881891283141465e-01 3.857913294418784805e-02 -1.212215366118258308e-01 7.526250618829034844e-02 1.929708560253285410e-01 -1.739939683881601140e-01 9.204703592398742751e-02 8.521878555238508041e-03 7.659307144587703536e-03 -1.173762920565930706e-01 -2.160772976748375363e-03 2.970667323176187993e-02 5.086368500850361324e-02 -1.824868268814660438e-02 9.048091714184379464e-02 -1.285959024689868786e-02 -1.019359808645696301e-02 9.475013549488967013e-02 -2.185549425928222378e-01 -5.686592940139093000e-02 1.039820824081886946e-01 -1.450450445112390005e-02 4.310283220433545198e-02 -6.616629001927148979e-02 3.901509329804892217e-03 4.650328552977424368e-02 -5.264288379255755573e-02 -6.307067221741710465e-03 -1.417519235482957683e-02 6.091655309622458908e-02 5.324102677051250482e-02 -5.970723578906282983e-03 -6.202492290927653223e-02 -1.739901646767984603e-02 1.428343340832970501e-02 1.915368586433826084e-02 -1.550151276101978913e-02 3.788040269214029698e-02 -1.490035760963367706e-01 3.011451135888571287e-02 7.837978900937807303e-02 1.263336351640907684e-01 1.817882487568208139e-01 -2.205508344686549910e-02 5.236453059062614462e-02 6.591621013965515141e-02 -1.809022022823570525e-02 -6.818857218756877413e-03 1.585236444203959594e-01