3.378974313805357867e-03 -5.018595202368257395e-03 -8.441370813357258404e-03 -5.018595202368258262e-03 4.317660437107165641e-03 -5.021300588490761573e-03 -8.441370813357258404e-03 -5.021300588490761573e-03 -3.326153744681079050e-03
-1.785822910545429298e-01 -1.140404644886245933e-01 -3.352384125962155903e-02 -1.140404644886245933e-01 3.104569631673196814e-02 5.050327007428287440e-02 -3.352384125962155903e-02 5.050327007428287440e-02 9.633156527724279217e-02
-5.056818999491428102e-01 -2.264283160311147680e-01 -5.704240184477034348e-02 -2.264283160311147403e-01 -8.948978098559086380e-02 1.114013476547941889e-01 -5.704240184477034348e-02 1.114013476547942028e-01 4.833179988232012142e-02
-4.685664358224327919e-01 -3.385949392495820054e-01 -8.417274822043376015e-02 -3.385949392495820054e-01 1.526515186269392921e-01 1.665097945253618261e-01 -8.417274822043374627e-02 1.665097945253618261e-01 3.745434909489428477e-01
-5.490850059297581742e-01 -4.522923163072558594e-01 -1.086246217569508260e-01 -4.522923163072558594e-01 2.727928353384958537e-01 2.241764013829860569e-01 -1.086246217569508121e-01 2.241764013829860569e-01 5.785245245772099310e-01
-5.989119821880988237e-01 -5.673072045475657799e-01 -1.334243911077952205e-01 -5.673072045475657799e-01 4.201155590321675182e-01 2.840909792373130793e-01 -1.334243911077952205e-01 2.840909792373130793e-01 8.138893504920710065e-01
-6.486902486057277706e-01 -6.824668816596719534e-01 -1.578746056955860344e-01 -6.824668816596720644e-01 5.626254266435499751e-01 3.422508652546938368e-01 -1.578746056955860066e-01 3.422508652546938368e-01 1.046462339537257202e+00
-6.800732848744523995e-01 -7.992007063248746102e-01 -1.812574812021370829e-01 -7.992007063248746102e-01 7.206818506796842660e-01 4.020803049167821497e-01 -1.812574812021371107e-01 4.020803049167821497e-01 1.298689440664152484e+00
-7.140704543687323991e-01 -9.145329745193300219e-01 -2.054563636575598151e-01 -9.145329745193300219e-01 8.708392163412173037e-01 4.607757799171783852e-01 -2.054563636575598151e-01 4.607757799171783852e-01 1.545334931727107675e+00
-6.384160217694586636e-01 -1.028594592902249305e+00 -2.289379617308831827e-01 -1.028594592902249527e+00 1.125912177182697205e+00 5.170919288448448947e-01 -2.289379617308831549e-01 5.170919288448447837e-01 1.901518895926041619e+00
-6.707906836775130444e-01 -1.141552478476836496e+00 -2.513596429072917360e-01 -1.141552478476836496e+00 1.265985818751795611e+00 5.728442962921950210e-01 -2.513596429072916805e-01 5.728442962921949100e-01 2.143151696342023182e+00
-6.197491873559807241e-01 -1.254448282305083984e+00 -2.753846369639401659e-01 -1.254448282305083540e+00 1.485710223361655036e+00 6.281821399106342074e-01 -2.753846369639401104e-01 6.281821399106343184e-01 2.468848410567290763e+00
-5.575147869257069955e-01 -1.364232321607240506e+00 -2.982122186026124333e-01 -1.364232321607240284e+00 1.710399682885703099e+00 6.801706182800737466e-01 -2.982122186026125443e-01 6.801706182800736356e-01 2.802365562358839490e+00
-4.624568058686796546e-01 -1.472510044859981715e+00 -3.216400594101028187e-01 -1.472510044859981937e+00 1.962975818523902127e+00 7.306568648388599430e-01 -3.216400594101027632e-01 7.306568648388599430e-01 3.167308052210708436e+00
-4.038208661911731889e-01 -1.576980177261555927e+00 -3.452787579283112529e-01 -1.576980177261555705e+00 2.172226566637835532e+00 7.781615474906363739e-01 -3.452787579283112529e-01 7.781615474906363739e-01 3.490119405744741332e+00
-2.811761743021856663e-01 -1.678632645387020172e+00 -3.690515161544426492e-01 -1.678632645387019950e+00 2.439557902395705913e+00 8.227080156547668111e-01 -3.690515161544427047e-01 8.227080156547667000e-01 3.875098668097553656e+00
-2.121079316902669543e-01 -1.776233524989948576e+00 -3.930282201118535101e-01 -1.776233524989948798e+00 2.646583362062563616e+00 8.639795667199041684e-01 -3.930282201118535101e-01 8.639795667199040574e-01 4.200256289829153999e+00
-1.009043631359692467e-01 -1.869665228383536437e+00 -4.181576026913751964e-01 -1.869665228383536437e+00 2.889536778619983259e+00 9.017347418870023112e-01 -4.181576026913753075e-01 9.017347418870024223e-01 4.564768096909581629e+00
4.512125951353628331e-03 -1.958668809104938013e+00 -4.435191349464567279e-01 -1.958668809104938013e+00 3.119715098277452192e+00 9.356859211345416316e-01 -4.435191349464567279e-01 9.356859211345416316e-01 4.917659970696676375e+00
1.287891495943439546e-01 -2.042917105671802069e+00 -4.695594039402757325e-01 -2.042917105671801625e+00 3.361905593472565013e+00 9.659312832076225597e-01 -4.695594039402757325e-01 9.659312832076224486e-01 5.284394661750864586e+00
2.189159971609190014e-01 -2.121650109810444551e+00 -4.961741153922692993e-01 -2.121650109810444107e+00 3.562916044289165196e+00 9.919747520868270607e-01 -4.961741153922692438e-01 9.919747520868271717e-01 5.610296788620670938e+00
3.282099047254875002e-01 -2.194833333224504468e+00 -5.237886391461810121e-01 -2.194833333224504468e+00 3.775791974335126699e+00 1.013970354879478064e+00 -5.237886391461810121e-01 1.013970354879478064e+00 5.949240620924051370e+00
4.275132253579551622e-01 -2.262215480863996042e+00 -5.521519129953688099e-01 -2.262215480863996042e+00 3.971270459830881450e+00 1.031359523998284011e+00 -5.521519129953686988e-01 1.031359523998283789e+00 6.270829075492834193e+00
5.351095391792609623e-01 -2.323636511212422651e+00 -5.815499041973205552e-01 -2.323636511212423095e+00 4.167224728402427303e+00 1.044637233630556272e+00 -5.815499041973205552e-01 1.044637233630556272e+00 6.593037968973053609e+00
6.143409373115809036e-01 -2.378580513006967490e+00 -6.118781853527547332e-01 -2.378580513006967934e+00 4.327407829393167482e+00 1.053397760491854518e+00 -6.118781853527548442e-01 1.053397760491854518e+00 6.877899958530523605e+00
7.065213762773636663e-01 -2.427103085646328040e+00 -6.431227835604588217e-01 -2.427103085646328484e+00 4.492547797992905600e+00 1.057439742253421855e+00 -6.431227835604588217e-01 1.057439742253421855e+00 7.167015145098179829e+00
7.759968285977437708e-01 -2.468932558180288339e+00 -6.752838195832563395e-01 -2.468932558180288339e+00 4.627361219415205618e+00 1.057298587710426840e+00 -6.752838195832563395e-01 1.057298587710426840e+00 7.423585477428861878e+00
8.499591513227245931e-01 -2.504131532047447539e+00 -7.084934482700672165e-01 -2.504131532047447539e+00 4.758237337884387408e+00 1.052472512869867760e+00 -7.084934482700673275e-01 1.052472512869867760e+00 7.674141398434242589e+00
9.067510342781551769e-01 -2.532567665805247614e+00 -7.426820406288424659e-01 -2.532567665805247170e+00 4.864049269218304161e+00 1.043260346055746579e+00 -7.426820406288424659e-01 1.043260346055746357e+00 7.896516317755998493e+00
9.608709939378013987e-01 -2.554178060076015555e+00 -7.777867440593788650e-01 -2.554178060076015111e+00 4.958821446765392160e+00 1.029571205409253398e+00 -7.777867440593788650e-01 1.029571205409253176e+00 8.104414357239797084e+00
1.003619841015564562e+00 -2.568969607781922182e+00 -8.136750649090053189e-01 -2.568969607781922626e+00 5.034077783148315000e+00 1.011404691788908794e+00 -8.136750649090054299e-01 1.011404691788908794e+00 8.288892464473548216e+00
1.041417342073355234e+00 -2.577123331318929012e+00 -8.500957966315396686e-01 -2.577123331318928567e+00 5.095785873254152776e+00 9.892830769747937847e-01 -8.500957966315395575e-01 9.892830769747938957e-01 8.455337961526435464e+00
1.068387322018732322e+00 -2.578416204793512190e+00 -8.870769303004308881e-01 -2.578416204793512190e+00 5.138605529576342867e+00 9.627110179914959431e-01 -8.870769303004308881e-01 9.627110179914959431e-01 8.597882603427644099e+00
1.091165787621812822e+00 -2.573322071050561544e+00 -9.244784717096226068e-01 -2.573322071050561544e+00 5.168518163682120914e+00 9.322036988667172785e-01 -9.244784717096227178e-01 9.322036988667173896e-01 8.721885798817606172e+00
1.105416904944128031e+00 -2.561520200066237152e+00 -9.620916948562081572e-01 -2.561520200066237152e+00 5.181759771379096158e+00 8.977193625588069104e-01 -9.620916948562081572e-01 8.977193625588070214e-01 8.823541833102073184e+00
1.116236274031009224e+00 -2.543686539006507097e+00 -9.997485036276698711e-01 -2.543686539006507541e+00 5.182757172604985030e+00 8.597172873076065480e-01 -9.997485036276698711e-01 8.597172873076065480e-01 8.906537315814441413e+00
1.120033917540393276e+00 -2.519646755169427266e+00 -1.037142598830425255e+00 -2.519646755169426378e+00 5.168917572821458251e+00 8.182813441949480238e-01 -1.037142598830425033e+00 8.182813441949480238e-01 8.968425584248629789e+00
1.121975152863982972e+00 -2.489979137854898106e+00 -1.074231211128106711e+00 -2.489979137854898550e+00 5.144457515427980354e+00 7.732083929768519548e-01 -1.074231211128106711e+00 7.732083929768518438e-01 9.012441317679311226e+00
1.119661846212986811e+00 -2.454376982758351033e+00 -1.110569021789962862e+00 -2.454376982758351033e+00 5.108416342843612235e+00 7.251333769117898065e-01 -1.110569021789962862e+00 7.251333769117898065e-01 9.038158345456466236e+00
1.117144101735360273e+00 -2.413739050436364053e+00 -1.145959574309679763e+00 -2.413739050436364497e+00 5.063630501180438337e+00 6.739506508261019491e-01 -1.145959574309679985e+00 6.739506508261019491e-01 9.047368345155394564e+00
1.112637273930098258e+00 -2.367675218097853307e+00 -1.180257376980891504e+00 -2.367675218097854195e+00 5.009759319505524111e+00 6.200653829260560634e-01 -1.180257376980891726e+00 6.200653829260560634e-01 9.040586455997210891e+00
1.109515409119799623e+00 -2.317432656867119967e+00 -1.213126238118396039e+00 -2.317432656867119967e+00 4.948970060164451290e+00 5.634345121304052961e-01 -1.213126238118395817e+00 5.634345121304054071e-01 9.018816635126894354e+00
1.107053238300494957e+00 -2.262196236895468893e+00 -1.244491014751162083e+00 -2.262196236895468449e+00 4.882616100636228751e+00 5.044987045869606668e-01 -1.244491014751162083e+00 5.044987045869606668e-01 8.984902065203549171e+00
1.106310543102633659e+00 -2.203602903148722536e+00 -1.273464370568014647e+00 -2.203602903148723424e+00 4.810180900586868979e+00 4.432007648217053952e-01 -1.273464370568014870e+00 4.432007648217053397e-01 8.936919353033998092e+00
1.110116968838187557e+00 -2.140531105687873303e+00 -1.300208603555156550e+00 -2.140531105687873747e+00 4.736712654242013265e+00 3.801770145756274144e-01 -1.300208603555156328e+00 3.801770145756274144e-01 8.881921393235893802e+00
1.115921923954097617e+00 -2.074778490093957650e+00 -1.324504983120194712e+00 -2.074778490093956762e+00 4.657553167066836863e+00 3.147418995787582552e-01 -1.324504983120194490e+00 3.147418995787583107e-01 8.812897225082584995e+00
1.128827145301033452e+00 -2.005049101911172027e+00 -1.345979862197493659e+00 -2.005049101911172027e+00 4.580993406286296477e+00 2.483277791002803936e-01 -1.345979862197493437e+00 2.483277791002803936e-01 8.741540844883500583e+00
1.144079530779321896e+00 -1.933732769862479328e+00 -1.364239444951425684e+00 -1.933732769862479106e+00 4.499795184968309769e+00 1.798650965717437655e-01 -1.364239444951425462e+00 1.798650965717437655e-01 8.657663524825370160e+00
1.167777461304661646e+00 -1.858843707995692318e+00 -1.379238423326046847e+00 -1.858843707995692318e+00 4.423085987486301107e+00 1.106754657516662438e-01 -1.379238423326046847e+00 1.106754657516662577e-01 8.574576479745884328e+00
1.195098350575692914e+00 -1.783503709337447063e+00 -1.390436135726581313e+00 -1.783503709337446841e+00 4.344039577629930093e+00 4.022584270811647988e-02 -1.390436135726581091e+00 4.022584270811647988e-02 8.482396768475325644e+00
1.230314002158563014e+00 -1.704569996952628674e+00 -1.398101682645005228e+00 -1.704569996952628674e+00 4.269886411148651639e+00 -3.099210394347380257e-02 -1.398101682645005450e+00 -3.099210394347379910e-02 8.391843971327860530e+00
1.270846746676665973e+00 -1.626753211522030895e+00 -1.401246927297868927e+00 -1.626753211522030451e+00 4.195348175788745415e+00 -1.029117415798946333e-01 -1.401246927297868927e+00 -1.029117415798946333e-01 8.295076584724835556e+00
1.320326748903546621e+00 -1.546331854581541654e+00 -1.399800268607114262e+00 -1.546331854581541876e+00 4.127356462669820480e+00 -1.746848571945706641e-01 -1.399800268607114040e+00 -1.746848571945706918e-01 8.203475873837872356e+00
1.372119798242336763e+00 -1.466902766848843243e+00 -1.394516866775515451e+00 -1.466902766848843020e+00 4.057563714347402595e+00 -2.477168119249041900e-01 -1.394516866775515673e+00 -2.477168119249041900e-01 8.104901530798828801e+00
1.435397687088460827e+00 -1.386005423327708597e+00 -1.384390241959783774e+00 -1.386005423327709041e+00 3.997400312495666963e+00 -3.193254849365200765e-01 -1.384390241959783552e+00 -3.193254849365200765e-01 8.016057305533882626e+00
1.501497038811342444e+00 -1.305849164925816597e+00 -1.369591767267206661e+00 -1.305849164925816597e+00 3.937389837732379494e+00 -3.910120033504145831e-01 -1.369591767267206883e+00 -3.910120033504146386e-01 7.925256378065943963e+00
1.574363031286241332e+00 -1.226245930064427947e+00 -1.350038353251471923e+00 -1.226245930064427725e+00 3.882133702174193957e+00 -4.623155000583710761e-01 -1.350038353251472145e+00 -4.623155000583711316e-01 7.837941879901521247e+00
1.650977650145409870e+00 -1.147864947039230810e+00 -1.325583398445556949e+00 -1.147864947039230810e+00 3.829011855695738209e+00 -5.326287857809798298e-01 -1.325583398445556949e+00 -5.326287857809798298e-01 7.752446829130970052e+00
1.735390643820717171e+00 -1.070532007138103481e+00 -1.296164638133753932e+00 -1.070532007138103481e+00 3.782263076974229143e+00 -6.015814518799563748e-01 -1.296164638133753932e+00 -6.015814518799563748e-01 7.674033280903760357e+00
1.822423345058963973e+00 -9.949375815068127737e-01 -1.262095248421279292e+00 -9.949375815068126627e-01 3.737147439937022142e+00 -6.690342104660467193e-01 -1.262095248421279514e+00 -6.690342104660468303e-01 7.598044588060838045e+00
1.914919537831497820e+00 -9.210256978017766771e-01 -1.223013189255979905e+00 -9.210256978017764551e-01 3.696510002313419196e+00 -7.343863418038191204e-01 -1.223013189255979905e+00 -7.343863418038191204e-01 7.528627233781609362e+00
2.010272719410182596e+00 -8.495146922608896034e-01 -1.179363871123582319e+00 -8.495146922608894924e-01 3.657931183611454973e+00 -7.979448997773276320e-01 -1.179363871123582097e+00 -7.979448997773275210e-01 7.463223436318422443e+00
2.109402953302889294e+00 -7.803489966258376764e-01 -1.131105888602608855e+00 -7.803489966258376764e-01 3.622820314718626200e+00 -8.590052309331479563e-01 -1.131105888602609078e+00 -8.590052309331479563e-01 7.403923075531014142e+00
2.210860638592824667e+00 -7.143092426512657189e-01 -1.078134116110642582e+00 -7.143092426512657189e-01 3.589720599924544508e+00 -9.173857588294468401e-01 -1.078134116110642360e+00 -9.173857588294468401e-01 7.349798792777944456e+00
2.315544819761565343e+00 -6.506639433755214696e-01 -1.020784056151336827e+00 -6.506639433755212476e-01 3.559539451253606490e+00 -9.725489762424314177e-01 -1.020784056151336827e+00 -9.725489762424313067e-01 7.302529363615620994e+00
2.421532296667613160e+00 -5.907657189794507380e-01 -9.593890214182780873e-01 -5.907657189794506269e-01 3.530596483684880216e+00 -1.024488674487366469e+00 -9.593890214182779763e-01 -1.024488674487366469e+00 7.259960769839416628e+00
2.530084351075474025e+00 -5.335274113009774721e-01 -8.940549347171282690e-01 -5.335274113009774721e-01 3.504161987100205433e+00 -1.072513452581631332e+00 -8.940549347171282690e-01 -1.072513452581631332e+00 7.224608055829321529e+00
2.639228983055923905e+00 -4.805174760871730455e-01 -8.248917807523875600e-01 -4.805174760871730455e-01 3.478443650986358993e+00 -1.116791508747805306e+00 -8.248917807523874490e-01 -1.116791508747805306e+00 7.194045759884980740e+00
2.750422663394687106e+00 -4.303631949288896918e-01 -7.523193742281616414e-01 -4.303631949288896363e-01 3.454579498430818685e+00 -1.156596498071468471e+00 -7.523193742281617524e-01 -1.156596498071468471e+00 7.170760856480154821e+00
2.862000151551614913e+00 -3.847515673657428970e-01 -6.764823588597732584e-01 -3.847515673657429525e-01 3.431334507398508649e+00 -1.192264413342458251e+00 -6.764823588597732584e-01 -1.192264413342458473e+00 7.152363025919364681e+00
2.975675749745778642e+00 -3.418779495211864417e-01 -5.980239915420554331e-01 -3.418779495211864417e-01 3.410007729045741343e+00 -1.222769326279244728e+00 -5.980239915420553221e-01 -1.222769326279244506e+00 7.141289817772798365e+00
3.089206005293151147e+00 -3.041891940155507235e-01 -5.172066421540021386e-01 -3.041891940155506679e-01 3.388910241058586514e+00 -1.248740402122864745e+00 -5.172066421540021386e-01 -1.248740402122864745e+00 7.134433438272395733e+00
3.204604458499960007e+00 -2.691273720721741314e-01 -4.341584882608973128e-01 -2.691273720721741314e-01 3.369446204027984670e+00 -1.269004794745479892e+00 -4.341584882608973683e-01 -1.269004794745479892e+00 7.134656574697403997e+00
3.319565148141389255e+00 -2.397247741321633652e-01 -3.491482311046617548e-01 -2.397247741321633652e-01 3.349668110696823131e+00 -1.284442824328972943e+00 -3.491482311046617548e-01 -1.284442824328972943e+00 7.138482450815384794e+00
3.437864930600027513e+00 -2.124896762691959595e-01 -2.626672952727827082e-01 -2.124896762691959595e-01 3.332402300701922560e+00 -1.293965079031480059e+00 -2.626672952727827637e-01 -1.293965079031480059e+00 7.150300292531689195e+00
3.555852905167731226e+00 -1.911309401824228815e-01 -1.752417306211586923e-01 -1.911309401824228538e-01 3.315269104774769104e+00 -1.298306390182259573e+00 -1.752417306211587200e-01 -1.298306390182259573e+00 7.165420095999080807e+00
3.676511049020063204e+00 -1.718011255931357617e-01 -8.708446083857972198e-02 -1.718011255931357617e-01 3.299917923976059875e+00 -1.295861528610142699e+00 -8.708446083857970810e-02 -1.295861528610142699e+00 7.186919816303292130e+00
3.796787916170272670e+00 -1.583483488726843691e-01 1.424979317854989987e-03 -1.583483488726843691e-01 3.285020591142491675e+00 -1.287909001788952512e+00 1.424979317854989554e-03 -1.287909001788952290e+00 7.211183944243269472e+00
3.921177853701984350e+00 -1.462140026510268254e-01 8.994766707180559817e-02 -1.462140026510267976e-01 3.272727730654394040e+00 -1.273351466526652986e+00 8.994766707180557042e-02 -1.273351466526652986e+00 7.242720250954685746e+00
4.045946907293280326e+00 -1.408076286461628079e-01 1.780986768901605399e-01 -1.408076286461627802e-01 3.261354845940926506e+00 -1.253601114808808870e+00 1.780986768901605122e-01 -1.253601114808809092e+00 7.276526343463773472e+00
4.174870838747636093e+00 -1.360023771267488968e-01 2.656140323290207550e-01 -1.360023771267488690e-01 3.252482970485270020e+00 -1.226792921403786707e+00 2.656140323290206995e-01 -1.226792921403786707e+00 7.317206219718168647e+00
4.304682676715938960e+00 -1.371659290960126343e-01 3.521645872208515882e-01 -1.371659290960126620e-01 3.245360971059229716e+00 -1.194722768871351981e+00 3.521645872208515327e-01 -1.194722768871351981e+00 7.360322811311835522e+00
4.438140985858241905e+00 -1.394748651980990684e-01 4.375017131989572539e-01 -1.394748651980990406e-01 3.240669688693708750e+00 -1.155805602881388117e+00 4.375017131989571983e-01 -1.155805602881387895e+00 7.408591632375990166e+00
4.572605790839575413e+00 -1.474394814349291316e-01 5.213440424352541180e-01 -1.474394814349291594e-01 3.238049307751066586e+00 -1.111480642066113189e+00 5.213440424352540070e-01 -1.111480642066113189e+00 7.459059697520685539e+00
4.712041339676976470e+00 -1.556854763334613312e-01 6.034356587425371288e-01 -1.556854763334613034e-01 3.238897662760922724e+00 -1.060810799311319164e+00 6.034356587425371288e-01 -1.060810799311318942e+00 7.515356822920222335e+00
4.851473326325554503e+00 -1.706055244402779336e-01 6.833504918689429219e-01 -1.706055244402779336e-01 3.241683182036056543e+00 -1.005236623165707055e+00 6.833504918689428109e-01 -1.005236623165707055e+00 7.572334270290090430e+00
4.995987199566425119e+00 -1.843086813335620966e-01 7.610464156018413862e-01 -1.843086813335621243e-01 3.248125679771685537e+00 -9.436107594134452992e-01 7.610464156018413862e-01 -9.436107594134454102e-01 7.634618337818586120e+00
5.140699439030091966e+00 -2.039681548365808728e-01 8.364185532947382429e-01 -2.039681548365808450e-01 3.257084314845729356e+00 -8.769973387938577725e-01 8.364185532947383539e-01 -8.769973387938577725e-01 7.697568576886384406e+00
5.289371772628429724e+00 -2.233658967913045579e-01 9.093498413200358232e-01 -2.233658967913045579e-01 3.269468035346875912e+00 -8.051631715029156089e-01 9.093498413200357122e-01 -8.051631715029156089e-01 7.764244556207296810e+00
5.437963536257210073e+00 -2.478212341528482077e-01 9.793920250579467579e-01 -2.478212341528481799e-01 3.284416068930334998e+00 -7.288714401487105254e-01 9.793920250579467579e-01 -7.288714401487106365e-01 7.831294682706607446e+00
5.589943803676882261e+00 -2.717641720312142795e-01 1.046784012226545046e+00 -2.717641720312142239e-01 3.302837722826093891e+00 -6.475544910273278720e-01 1.046784012226544824e+00 -6.475544910273279831e-01 7.901715326437892983e+00
5.740407616105028588e+00 -3.007577768238243188e-01 1.111203459623199663e+00 -3.007577768238242633e-01 3.323382519376813615e+00 -5.629031507459797412e-01 1.111203459623199663e+00 -5.629031507459797412e-01 7.971062261409382899e+00
5.893980713560669216e+00 -3.279911859445023281e-01 1.172783700766341752e+00 -3.279911859445023281e-01 3.347127239810801402e+00 -4.745093101550454939e-01 1.172783700766341752e+00 -4.745093101550454939e-01 8.043105827119314100e+00
6.045193919514981751e+00 -3.600733354932538210e-01 1.231223882742088493e+00 -3.600733354932538766e-01 3.372938645753218889e+00 -3.832064066755351273e-01 1.231223882742088716e+00 -3.832064066755351273e-01 8.113867273929944446e+00
6.197418366933765022e+00 -3.905837324391009946e-01 1.286839009052133553e+00 -3.905837324391011056e-01 3.401837238641880479e+00 -2.887898115744797489e-01 1.286839009052133553e+00 -2.887898115744797489e-01 8.185632672069191429e+00
6.346160369680489133e+00 -4.253292444016161800e-01 1.339501810634302625e+00 -4.253292444016161800e-01 3.432027930587173703e+00 -1.920706146185892915e-01 1.339501810634302625e+00 -1.920706146185892638e-01 8.255134289248138302e+00
6.495028155286631133e+00 -4.579522113031143649e-01 1.389339081568026657e+00 -4.579522113031143093e-01 3.464718833923637664e+00 -9.315729968882438539e-02 1.389339081568026213e+00 -9.315729968882438539e-02 8.325516055631258183e+00
6.638238972533766713e+00 -4.949502180768950432e-01 1.435701504517085114e+00 -4.949502180768950987e-01 3.498371354457362248e+00 6.503138031313988182e-03 1.435701504517085114e+00 6.503138031313989917e-03 8.392270439011147332e+00
6.780543242945570093e+00 -5.281663517112553663e-01 1.479411454178799490e+00 -5.281663517112553663e-01 3.533880935259422262e+00 1.069773892164844059e-01 1.479411454178799490e+00 1.069773892164844198e-01 8.458694680265136157e+00
6.916276691636432439e+00 -5.642235325211953922e-01 1.519993840770587301e+00 -5.642235325211955033e-01 3.569528447855817355e+00 2.072303108513649517e-01 1.519993840770587301e+00 2.072303108513649794e-01 8.520747592052334340e+00
4.062383144433374949e-02 -4.629826445673240146e-04 -6.755474228510051186e-03 -4.629826445673239604e-04 5.091884036197791286e-02 -7.300500359809247199e-03 -6.755474228510050319e-03 -7.300500359809247199e-03 4.735164735395723523e-02
-4.466359676987223526e-02 1.177651996268780504e-01 1.142531529373988358e-01 1.177651996268780643e-01 2.419762431613042275e-01 -2.665850299553864169e-02 1.142531529373988358e-01 -2.665850299553864516e-02 5.456593609817640689e-02
-1.321860560880807056e-01 2.314706291528113025e-01 2.374296396112653695e-01 2.314706291528113025e-01 4.332056204151733536e-01 -4.679342189740001018e-02 2.374296396112653418e-01 -4.679342189740001712e-02 6.384328149185528045e-02
-1.155429008645093986e-01 3.409462689772817523e-01 3.622373463592181153e-01 3.409462689772816413e-01 7.284551397376134441e-01 -6.823975571409135465e-02 3.622373463592181153e-01 -6.823975571409134078e-02 1.807606394302246899e-01
-1.036176900672984291e-01 4.433487332541620751e-01 4.850169101025282314e-01 4.433487332541620751e-01 1.020888854872719298e+00 -9.002048932713856144e-02 4.850169101025282870e-01 -9.002048932713856144e-02 2.945944674651029827e-01
-8.488638364029775507e-02 5.433684341786968464e-01 6.098014052979335853e-01 5.433684341786969574e-01 1.316586131868480836e+00 -1.129849300169941950e-01 6.098014052979334743e-01 -1.129849300169941811e-01 4.130878507361949170e-01
-8.111936106268158309e-02 6.387901241807947272e-01 7.350983430985584821e-01 6.387901241807948383e-01 1.595903531644212503e+00 -1.365692864843577881e-01 7.350983430985584821e-01 -1.365692864843577603e-01 5.155303090615860340e-01
5.021125842687852031e-02 7.284516354179472186e-01 8.608585019633996360e-01 7.284516354179471076e-01 2.000006229741992936e+00 -1.618240403095295155e-01 8.608585019633995250e-01 -1.618240403095294877e-01 7.480198384590274197e-01
6.611038074381210550e-02 8.134485528195460891e-01 9.872304036721526455e-01 8.134485528195458670e-01 2.284744477607660418e+00 -1.869486344699629321e-01 9.872304036721526455e-01 -1.869486344699629043e-01 8.601761343475953225e-01
1.716322973593664702e-01 8.941579190886993489e-01 1.111667597889685721e+00 8.941579190886993489e-01 2.656958536186126096e+00 -2.129987334235702578e-01 1.111667597889685277e+00 -2.129987334235702578e-01 1.062586082302964252e+00
3.006269597370020419e-01 9.697665540928355199e-01 1.237672573359891004e+00 9.697665540928355199e-01 3.044313882066073340e+00 -2.409014071080766151e-01 1.237672573359890782e+00 -2.409014071080765595e-01 1.284220422039698217e+00
4.520351095315123247e-01 1.041007179136494321e+00 1.362101062370706606e+00 1.041007179136494321e+00 3.450141900348579593e+00 -2.687210690010976566e-01 1.362101062370706606e+00 -2.687210690010976011e-01 1.526487590586719900e+00
5.858638942322877963e-01 1.108494536716680745e+00 1.485085770967045971e+00 1.108494536716680745e+00 3.829501440963521297e+00 -2.977741663763111557e-01 1.485085770967045748e+00 -2.977741663763111557e-01 1.743727673245881515e+00
7.699862355057182084e-01 1.171560001096887849e+00 1.606883437245485213e+00 1.171560001096887849e+00 4.252344288002059436e+00 -3.275206314724684598e-01 1.606883437245484991e+00 -3.275206314724684598e-01 2.008763883254589988e+00
9.322301406190344197e-01 1.230553203044020494e+00 1.727327723114651326e+00 1.230553203044020494e+00 4.644036960650229418e+00 -3.579569364845667234e-01 1.727327723114651326e+00 -3.579569364845667789e-01 2.244478698224391167e+00
1.130228406881822689e+00 1.285910579632595141e+00 1.845091827758563063e+00 1.285910579632595585e+00 5.062669060922885933e+00 -3.890756755348869222e-01 1.845091827758562841e+00 -3.890756755348869778e-01 2.510696608914139816e+00
1.312446910015394375e+00 1.337675357554912292e+00 1.960506149726750635e+00 1.337675357554912514e+00 5.455300354335797408e+00 -4.208853905194767098e-01 1.960506149726750635e+00 -4.208853905194767098e-01 2.752931972591253995e+00
1.523175758833129390e+00 1.386049014856644002e+00 2.072911138636082118e+00 1.386049014856644224e+00 5.866147435827330447e+00 -4.530369979128938129e-01 2.072911138636082562e+00 -4.530369979128937574e-01 3.017091718317550963e+00
1.713167693698792959e+00 1.431553463047831043e+00 2.182039026297703632e+00 1.431553463047831043e+00 6.245102043830344840e+00 -4.857628045543756490e-01 2.182039026297702744e+00 -4.857628045543756490e-01 3.251454312432610738e+00
1.924757448278332062e+00 1.474216418481909763e+00 2.286992451000267934e+00 1.474216418481909763e+00 6.633868842464444526e+00 -5.187005498023370409e-01 2.286992451000267490e+00 -5.187005498023370409e-01 3.498761516482562506e+00
2.117242812853004086e+00 1.514336998208143603e+00 2.387832131708232719e+00 1.514336998208143825e+00 6.991509240780859002e+00 -5.521163687961961886e-01 2.387832131708232719e+00 -5.521163687961962996e-01 3.716836904076052051e+00
2.325243865197756499e+00 1.551797695021850609e+00 2.484112971402837822e+00 1.551797695021850609e+00 7.351691871514467458e+00 -5.855567247367625683e-01 2.484112971402837822e+00 -5.855567247367625683e-01 3.940642363127260239e+00
2.510213751206409327e+00 1.587321025769802052e+00 2.575547969167535367e+00 1.587321025769802052e+00 7.676324332706735198e+00 -6.193444026445331652e-01 2.575547969167536255e+00 -6.193444026445332762e-01 4.130667184061389108e+00
2.705255892291017705e+00 1.620546676787945506e+00 2.661572050538307810e+00 1.620546676787945284e+00 7.997113804052619734e+00 -6.526093055665171949e-01 2.661572050538307810e+00 -6.526093055665171949e-01 4.318971256462626584e+00
2.878440010415211248e+00 1.652328778198887793e+00 2.741948065696533821e+00 1.652328778198887793e+00 8.282952830441535852e+00 -6.859659411320425670e-01 2.741948065696534265e+00 -6.859659411320425670e-01 4.473558625885379669e+00
3.053602823838821312e+00 1.682028852271889807e+00 2.816264605291145529e+00 1.682028852271890029e+00 8.556183016158747989e+00 -7.186408585688764949e-01 2.816264605291145529e+00 -7.186408585688764949e-01 4.617388516721159242e+00
3.212040421492166065e+00 1.710368306128425386e+00 2.884194844526716484e+00 1.710368306128425386e+00 8.799389117114563064e+00 -7.512971566435281412e-01 2.884194844526716484e+00 -7.512971566435281412e-01 4.732178707506886184e+00
3.366033726736856302e+00 1.736785978971456590e+00 2.945694822892258813e+00 1.736785978971456812e+00 9.023273379502148472e+00 -7.829185699146884447e-01 2.945694822892259257e+00 -7.829185699146885558e-01 4.828474642825601570e+00
3.501352101308884190e+00 1.762134766017668053e+00 3.000333682337991359e+00 1.762134766017668053e+00 9.215395069171661291e+00 -8.143286948262075109e-01 3.000333682337991359e+00 -8.143286948262075109e-01 4.892767627308235667e+00
3.630096144904686462e+00 1.785742695848742123e+00 3.048234789399375533e+00 1.785742695848742345e+00 9.386032088362401993e+00 -8.444060648200135688e-01 3.048234789399375533e+00 -8.444060648200135688e-01 4.935672038919753923e+00