4.446860000000000257e-01 1.488610999999999907e+00 -1.888990000000000113e-01 2.603939000000000004e+00 -4.004316000000000209e+00 -8.700109999999999788e-01 1.322699999999999917e-02 -2.852774000000000143e+00 -4.547706999999999944e+00 3.300990000000000091e+00 2.035531999999999897e+00 4.243050000000000210e+00 -6.162124000000000379e+00 3.482442999999999955e+00 1.021760300000000043e+01 -1.602918000000000065e+00 2.641891999999999907e+00 -1.340689999999999937e+00 -1.749581999999999971e+00 -6.641040000000000276e-01 -8.381140000000000256e-01 9.068850000000000522e-01 5.299299999999999844e-02 -2.750608000000000164e+00 1.781651000000000096e+00 -1.692136000000000084e+00 -1.551868999999999943e+00 2.833553999999999906e+00 -2.076947999999999794e+00 3.489450000000000163e+00 1.925758999999999999e+00 7.714689999999999603e-01 7.686629999999999852e-01 3.192349999999999910e-01 2.556141000000000219e+00 -2.782394000000000034e+00 -3.647159999999999846e-01 -1.889698000000000100e+00 -2.009910000000000030e-01 -2.685982999999999787e+00 -5.364048999999999623e+00 -5.091350000000000042e-01 -7.914560000000000484e-01 -2.056640000000000135e-01 -9.723720000000000141e-01 4.663302999999999976e+00 -4.982899999999999829e-02 -7.664649999999999519e-01 3.809827999999999992e+00 -4.803914999999999935e+00 4.642020000000000035e-01 -7.759300000000000086e-01 1.332508000000000026e+00 -2.411580999999999975e+00 5.550629999999999953e+00 -3.361910000000000176e-01 1.691265999999999936e+00 5.593820000000000459e-01 -1.829558000000000018e+00 -3.855399999999999938e-01 -2.624282000000000004e+00 1.628595999999999933e+00 1.159010000000000040e-01 -2.196199999999999888e-02 1.356438000000000033e+00 1.001951000000000036e+00 -4.414385000000000225e+00 -2.683641999999999861e+00 -1.165901000000000076e+00 -8.275709999999999456e-01 2.835964999999999847e+00 1.643995000000000095e+00 -1.831058999999999992e+00 2.398119999999999974e-01 7.208869999999999445e-01 4.413584000000000174e+00 -2.408020000000000049e+00 1.162077000000000027e+00 4.070021999999999807e+00 2.660239999999999938e+00 2.896656000000000120e+00 -1.156322000000000072e+00 9.813859999999999806e-01 -6.324423000000000350e+00 -1.629529999999999923e+00 6.847100000000000408e-01 -1.274269000000000096e+00 -2.648547000000000207e+00 1.811045000000000016e+00 -2.392869999999999997e-01 -1.444744999999999946e+00 1.058416999999999941e+00 2.438222999999999807e+00 1.917635999999999896e+00 1.344200000000000117e-01 3.977212000000000192e+00 -8.078739999999999810e-01 5.703009999999999469e-01 1.594794000000000045e+00 5.234149999999999636e+00 -2.821671999999999958e+00 2.371507999999999949e+00 -3.764319999999999888e-01 -8.956450000000000244e-01 -1.304454999999999920e+00 4.160500000000000309e-02 1.529741999999999935e+00 1.039198000000000066e+00 3.204175999999999913e+00 5.475830000000000419e-01 -2.400295999999999985e+00 -3.066940000000000222e-01 -3.038739999999999775e-01 -4.337599999999999789e-01 -1.084762000000000004e+00 1.793770000000000087e-01 -1.478248999999999924e+00 -1.601224999999999898e+00 -1.150014000000000092e+00 6.588979999999999837e-01 3.236105999999999927e+00 -1.556583999999999968e+00 2.165938999999999837e+00 2.533688999999999858e+00 -2.759590000000000209e+00 -2.401149000000000200e+00 -1.166447999999999929e+00 -1.725500000000000089e-01 -1.759709999999999885e-01 1.068637999999999977e+00 1.731316999999999995e+00 -1.226804999999999923e+00 -1.139971000000000068e+00 -1.942740000000000022e-01 2.131460000000000021e-01 -2.248280000000000001e-01 -1.189707999999999988e+00 1.857132000000000005e+00 -3.290179999999999771e-01 -3.326859999999999817e-01 1.556804999999999994e+00 -2.274239999999999873e-01 -8.272960000000000313e-01 -7.810599999999999765e-01 -3.516610000000000014e-01 -1.938989999999999880e-01 4.225789999999999824e-01 -2.931545999999999985e+00 7.716269999999999518e-01 -3.086050999999999878e+00 1.043786000000000103e+00 -6.616710000000000091e-01 -5.500100000000000128e-02 -5.474849999999999994e-01 2.776393000000000111e+00 2.081246000000000151e+00 -1.322667000000000037e+00 -3.491870000000000251e-01 -2.481970000000000010e-01 -6.683400000000000452e-01 2.719098999999999933e+00 1.887445000000000039e+00 1.569393000000000038e+00 3.223299999999999776e-02 -1.490879999999999983e-01 -2.719586000000000059e+00 1.634927000000000019e+00 -2.578526000000000096e+00 -1.215756999999999977e+00 5.833939999999999682e-01 1.994588000000000028e+00 -3.878382000000000218e+00 2.878331999999999891e+00 -1.045088999999999935e+00 1.518512000000000084e+00 1.111043000000000003e+00 3.232550000000000145e-01 1.979962000000000000e+00 -4.420879999999999810e-01 -7.924569999999999670e-01 -6.616239999999999899e-01 1.362714999999999899e+00 1.588343000000000060e+00 -1.147281999999999913e+00 2.440561999999999898e+00 -2.432253999999999916e+00 -1.669357999999999898e+00 -2.307627999999999791e+00 2.580057000000000045e+00 -9.735270000000000312e-01 4.061799999999999855e-01 -8.521000000000000796e-03 -5.299920000000000186e-01 -1.349903000000000075e+00 -1.725927999999999907e+00 -1.768059000000000047e+00 -2.069075999999999915e+00 -2.709620999999999835e+00 5.243849999999999900e-01 8.574099999999999777e-02 -1.549056999999999906e+00 -1.473519999999999941e+00 9.548360000000000181e-01 1.473462999999999967e+00 -1.857749999999999957e-01 -1.023352000000000039e+00 -2.470529999999999948e-01 -1.548073000000000032e+00 1.951573000000000002e+00 1.893942000000000014e+00 -1.116598999999999897e+00 3.821209999999999885e-01 6.766000000000000313e-03 -1.170751000000000097e+00 -2.946498000000000062e+00 -8.753159999999999830e-01 1.938269000000000020e+00 7.749740000000000517e-01 5.220409999999999773e-01 -1.232056999999999958e+00 4.383529999999999927e-01 -1.376096999999999904e+00 3.100206000000000017e+00 1.094592999999999927e+00 3.584642999999999802e+00 -1.731471999999999900e+00 -1.588603999999999905e+00 -2.239971999999999852e+00 4.365029999999999744e-01 1.262442999999999982e+00 2.385819999999999885e-01 -2.295338000000000100e+00 -1.190528000000000031e+00 -4.863859999999999850e-01 7.270119999999999916e-01 1.014799999999999924e+00 2.189532999999999952e+00 -1.394867999999999997e+00 -1.464433000000000096e+00 -2.320683999999999969e+00 -8.778759999999999897e-01 4.126795999999999687e+00 1.988366000000000078e+00 3.629799999999999693e-02 1.864767000000000063e+00 3.604970000000000119e-01 -1.895078999999999958e+00 3.358502999999999794e+00 3.686070000000000180e-01 -6.764379999999999837e-01 -2.549370000000000247e-01 2.588563000000000169e+00 3.227849999999999886e-01 5.029999999999999749e-04 1.330819999999999892e+00 1.214892000000000083e+00 -3.897241000000000177e+00 -2.534190999999999860e+00 -9.719959999999999711e-01 7.037000000000000199e-02 -5.807799999999999629e-01 7.890650000000000164e-01 5.977780000000000316e-01 -1.953910000000000091e-01 9.920280000000000209e-01 2.437489999999999934e-01 -5.582679999999999865e-01 -1.260272999999999977e+00 -1.301415999999999906e+00 1.630789000000000044e+00 7.416749999999999732e-01 2.129679999999999906e-01 -1.177829000000000015e+00 8.265479999999999494e-01 -7.802989999999999648e-01 1.219384999999999941e+00 5.026735000000000397e+00 -3.609408000000000172e+00 -8.953998000000000346e+00 -1.009562000000000070e+00 1.032596000000000069e+00 6.856950000000000545e-01
7.418690000000000007e-01 -1.517106999999999983e+00 3.125939999999999830e-01 2.701591000000000076e+00 1.757951999999999959e+00 -8.850599999999999579e-01 -9.800210000000000310e-01 6.074895999999999852e+00 -3.888380999999999865e+00 -9.486759999999999637e-01 2.376316999999999791e+00 -1.564321000000000073e+00 -1.427627999999999897e+00 -2.870260000000000034e-01 9.668100000000000305e-02 -3.109419999999999962e-01 -7.234429999999999472e-01 1.182030000000000025e-01 -1.917770999999999892e+00 -2.934544999999999959e+00 -2.940144000000000091e+00 -1.183254999999999946e+00 8.827599999999999336e-02 -1.174036999999999997e+00 -7.098780000000000090e-01 7.965889999999999915e-01 -1.069871000000000016e+00 -2.770900000000000030e-01 -7.156099999999999683e-01 1.857690999999999981e+00 -1.680439999999999934e+00 4.201610000000000067e-01 -2.232098000000000138e+00 -1.794635999999999898e+00 2.366375999999999813e+00 -3.265290999999999944e+00 -4.665889999999999760e-01 1.087539000000000033e+00 -2.332829999999999904e-01 1.973319999999999963e+00 -6.358629999999999560e-01 1.082588000000000106e+00 2.626825000000000188e+00 -4.262409999999999810e-01 -3.867789999999999839e-01 2.272089999999999943e+00 -2.021094000000000168e+00 -1.307659999999999934e-01 -9.933440000000000047e-01 -1.640149999999999997e+00 -2.583537999999999890e+00 1.459160999999999930e+00 2.545636000000000010e+00 -2.301108000000000153e+00 -2.283290000000000042e-01 2.866842999999999808e+00 5.272379999999999844e-01 2.373984999999999790e+00 1.618408000000000069e+00 8.354460000000000219e-01 2.876863000000000170e+00 1.810033000000000003e+00 -6.644590000000000218e-01 -9.395780000000000243e-01 2.608999999999999986e+00 -6.247840000000000060e-01 5.222247000000000305e+00 6.290980000000000461e-01 -2.288959999999999884e+00 -6.304349999999999676e-01 6.537700000000000455e-02 1.806124999999999980e+00 -6.557049999999999823e-01 -1.050856000000000012e+00 2.614189999999999792e+00 5.721129999999999827e-01 -1.600449999999999928e-01 -1.729047999999999918e+00 -1.500960999999999990e+00 -1.763582999999999901e+00 1.301935000000000064e+00 -2.112753999999999799e+00 -8.790699999999999903e-02 -7.620700000000000252e-01 3.002632000000000190e+00 -1.548848999999999920e+00 -1.056259999999999977e+00 -1.617470000000000019e-01 5.500399999999999734e-02 7.781580000000000163e-01 1.167758999999999991e+00 2.593398000000000092e+00 5.794647000000000325e+00 -1.960510000000000030e-01 -7.620829999999999549e-01 4.787739999999999774e-01 -8.768230000000000190e-01 -5.090510000000000312e-01 -2.148940000000000017e-01 2.698586000000000151e+00 -9.899080000000000101e-01 2.530352000000000157e+00 1.128999999999999969e-02 -1.130023999999999917e+00 1.063930000000000042e+00 8.574720000000000120e-01 9.711300000000000487e-02 1.184836000000000000e+00 4.515469999999999762e-01 3.317759999999999820e+00 1.751481999999999983e+00 -4.874799999999999967e-02 -2.043922999999999934e+00 -2.231183000000000138e+00 1.652540000000000120e-01 4.294856000000000229e+00 -3.783837999999999813e+00 -1.357243999999999895e+00 -5.619039999999999591e-01 -1.350991999999999971e+00 2.755015000000000214e+00 -8.883529999999999482e-01 1.616769999999999874e-01 1.053744000000000014e+00 -2.528960999999999792e+00 2.183606999999999854e+00 -7.795389999999999819e-01 -2.173255999999999855e+00 2.785900999999999961e+00 -9.918200000000000349e-01 6.847999999999999921e-03 -1.724118999999999957e+00 3.805910000000000126e-01 2.623062000000000005e+00 -5.699509999999999854e-01 2.909228999999999843e+00 6.384499999999999620e-01 1.006539000000000073e+00 1.719915000000000083e+00 -1.924291999999999891e+00 1.259230000000000071e-01 -9.869999999999999885e-01 3.199699999999999767e-01 1.339799999999999880e-01 -4.944500000000000006e-01 1.170530999999999988e+00 -4.234747999999999735e+00 2.690862999999999783e+00 -8.281800000000000272e-02 -5.304769999999999763e-01 -4.712509999999999755e-01 3.230000000000000232e-02 1.634578000000000086e+00 9.989400000000000501e-01 -1.544586999999999932e+00 -6.459430000000000449e-01 -1.086190999999999907e+00 3.593970000000000220e-01 -4.633000000000000312e-02 -1.967343999999999982e+00 3.144953999999999805e+00 -1.010529999999999928e+00 -2.176817999999999920e+00 -3.952802000000000149e+00 1.105550000000000033e+00 -2.344870999999999928e+00 -1.797600000000000031e-01 2.690822999999999965e+00 1.126713999999999993e+00 -5.897299999999999764e-02 4.970439999999999858e-01 4.963330000000000242e-01 3.759449000000000041e+00 2.154351000000000127e+00 5.976510000000000433e-01 7.870030000000000081e-01 -1.550689999999999902e+00 -1.544240999999999975e+00 -1.243589999999999973e-01 -4.278480000000000061e-01 2.100789999999999880e-01 -7.909329999999999972e-01 -4.872009999999999952e-01 -2.656149999999999900e-01 2.434599999999999959e-02 6.415260000000000407e-01 2.021882999999999875e+00 -1.814008000000000065e+00 -2.179909999999999903e-01 5.679910000000000236e-01 -1.104746999999999924e+00 3.466987000000000041e+00 7.126850000000000129e-01 -8.354899999999999827e-02 -7.959840000000000249e-01 -2.137561999999999962e+00 -2.623105999999999938e+00 -1.610681000000000029e+00 2.115009999999999835e+00 -1.906592999999999982e+00 2.621335000000000193e+00 -7.250330000000000386e-01 -1.747841999999999896e+00 -3.851382999999999779e+00 -4.548479999999999746e-01 -1.704749999999999877e-01 -6.273640000000000327e-01 -4.462550000000000128e-01 -3.322820000000000218e-01 -1.136470000000000091e+00 -6.879359999999999919e-01 8.269030000000000546e-01 7.116200000000000303e-02 -5.211165000000000269e+00 -3.681569999999999787e+00 4.653577000000000297e+00 -9.602370000000000072e-01 1.510799000000000003e+00 2.717720000000000136e-01 -9.750699999999999645e-02 -3.792940000000000200e-01 -4.987500000000000266e-01 5.600979999999999848e-01 -9.733730000000000437e-01 1.042326000000000086e+00 1.408846000000000043e+00 -8.618639999999999635e-01 -2.841770000000000129e-01 -1.064719999999999972e-01 -9.954859999999999820e-01 1.305760999999999949e+00 -1.351699999999999902e+00 9.569039999999999768e-01 -4.518099999999999894e-01 -3.215625000000000178e+00 1.130420000000000036e-01 1.941660000000000053e-01 -8.159859999999999891e-01 -1.156722999999999946e+00 -8.276550000000000296e-01 -3.127869999999999817e-01 -6.985329999999999595e-01 2.954729999999999857e-01 4.878000000000000114e-01 1.765839999999999910e-01 -5.507379999999999498e-01 7.910509999999999486e-01 -1.262213999999999947e+00 -1.703300000000000036e+00 2.109961999999999893e+00 1.294051999999999980e+00 2.581674000000000024e+00 3.313429999999999986e-01 -1.103927000000000103e+00 2.898470000000000213e-01 -5.743700000000000472e-01 -1.071410000000000001e-01 -9.780419999999999670e-01 2.356774999999999842e+00 1.210449999999999998e-01 1.297983000000000109e+00 -2.046454999999999913e+00 6.489249999999999741e-01 -1.792890000000000095e+00 -4.568929999999999936e-01 -1.478979999999999961e+00 1.108630000000000004e+00 -4.019116000000000355e+00 -1.490474000000000077e+00 1.791852999999999918e+00 3.472680000000000211e-01 1.199545000000000083e+00 2.266219999999999901e-01 -7.731970000000000232e-01 1.616230000000000055e+00 -1.300472999999999990e+00 7.698760000000000048e-01 4.513340000000000130e-01 1.910044999999999993e+00 -1.793336999999999959e+00 4.781810000000000227e-01 2.831126999999999949e+00
-4.187686000000000242e+00 1.877634000000000025e+00 2.995474000000000192e+00 -3.422963999999999896e+00 -2.483296000000000170e+00 -5.954439999999999733e-01 1.294867999999999908e+00 -2.226266999999999996e+00 5.308829999999999938e-01 1.786067000000000071e+00 -4.492067999999999728e+00 -1.996475000000000000e+00 -1.222079999999999972e-01 1.040159000000000056e+00 8.836519999999999930e-01 2.043172000000000210e+00 3.683558000000000110e+00 1.693071999999999910e+00 -1.820546999999999915e+00 2.741109999999999935e-01 1.634006999999999987e+00 2.310416000000000025e+00 -2.585046000000000177e+00 -1.219248000000000109e+00 -1.816781999999999897e+00 -1.437569999999999959e-01 2.733049999999999979e+00 2.841270999999999880e+00 5.394516000000000311e+00 1.836425999999999892e+00 3.693915000000000060e+00 -4.996394999999999698e+00 5.989921999999999969e+00 -2.228577000000000030e+00 -2.230103000000000169e+00 8.690919999999999757e-01 2.683196000000000137e+00 -5.519004999999999939e+00 3.012549999999999950e-01 1.542451000000000016e+00 -3.397499999999999964e-01 1.207537000000000083e+00 -5.216859999999999831e-01 -2.578783000000000047e+00 -2.527077999999999935e+00 2.062831000000000081e+00 -2.918550000000000200e+00 3.005374000000000212e+00 3.120399999999999840e-01 7.203910000000000036e-01 -2.860380000000000145e+00 -2.730322000000000138e+00 1.177103999999999928e+00 -2.174932000000000087e+00 -3.176019999999999954e-01 7.855600000000000083e-02 -1.795398000000000049e+00 1.268285000000000107e+00 -3.732699999999999907e-01 -1.133160000000000001e-01 3.396365999999999996e+00 9.145299999999999541e-01 -1.587061999999999973e+00 -1.875566000000000066e+00 2.070596999999999799e+00 3.624039999999999928e+00 -8.831940000000000346e-01 -1.396419999999999884e-01 -8.803549999999999986e-01 -1.074492000000000003e+00 4.558679999999999954e-01 -2.409848999999999908e+00 1.657812999999999981e+00 -7.488240000000000451e-01 -2.900879000000000207e+00 1.386363000000000012e+00 1.818608999999999920e+00 -1.803519000000000094e+00 -1.686695999999999973e+00 -9.976390000000000535e-01 -2.407728999999999786e+00 -3.496400000000000202e-02 4.101713000000000164e+00 -3.757843999999999962e+00 -9.675970000000000404e-01 5.070770000000000000e-01 6.667729999999999491e-01 -5.260499999999999898e-02 -1.913248000000000060e+00 -9.957540000000000280e-01 -2.910527000000000086e+00 2.006286999999999932e+00 -3.873836999999999975e+00 1.530685999999999991e+00 -1.038494000000000028e+00 9.810969999999999969e-01 2.203551000000000037e+00 5.529290000000000038e-01 2.071619999999999795e+00 1.657877000000000045e+00 -3.792689000000000199e+00 -8.989279999999999493e-01 -4.618110000000000270e-01 2.222608999999999835e+00 -1.202142000000000044e+00 -2.368000000000000105e-01 1.650293999999999928e+00 2.476253999999999955e+00 -2.306138999999999939e+00 -4.762914999999999566e+00 -3.530860000000000110e+00 9.828130000000000477e-01 1.394687000000000010e+00 1.485972000000000071e+00 1.160743999999999998e+00 -1.823649000000000076e+00 1.104803999999999897e+00 -2.383507999999999960e+00 1.042070000000000052e+00 2.930522999999999989e+00 -2.247666000000000164e+00 3.265760000000000218e+00 -3.437984000000000151e+00 2.535240000000000271e-01 1.859739000000000031e+00 -1.828373000000000026e+00 -9.213740000000000263e-01 4.381519999999999859e-01 -8.933999999999999719e-01 -9.783500000000000529e-01 1.227457000000000020e+00 4.293359999999999954e-01 1.868603999999999932e+00 3.225783999999999985e+00 -2.587180000000000035e+00 1.201384000000000007e+00 -2.068128999999999884e+00 -4.240709999999999757e-01 -5.758900000000000130e-02 -3.484610000000000207e-01 -3.298399999999999943e-02 9.753849999999999465e-01 9.306999999999999995e-02 1.404970999999999970e+00 -7.359790000000000498e-01 1.587571999999999983e+00 2.777897999999999978e+00 4.191579999999999750e-01 1.074035999999999991e+00 1.118695999999999913e+00 1.851744999999999974e+00 -4.727129999999999943e-01 1.020208999999999921e+00 2.304996000000000045e+00 -6.995500000000000052e-01 -2.483540000000000081e+00 -4.506578000000000195e+00 3.155273999999999912e+00 1.073029999999999928e+00 3.737719999999999931e-01 -2.943609999999999838e-01 3.270680000000000254e-01 1.943343999999999960e+00 3.089306000000000108e+00 2.239634000000000125e+00 -3.455400000000000138e-02 -2.019155000000000033e+00 -1.029630999999999963e+00 4.226740999999999637e+00 -3.448571999999999971e+00 -3.606402000000000108e+00 8.221730000000000427e-01 -2.596152000000000015e+00 -2.844352999999999909e+00 1.484012000000000109e+00 2.105767999999999862e+00 2.791614000000000040e+00 2.014640000000000042e-01 6.135098000000000162e+00 3.984790999999999972e+00 -1.357364999999999933e+00 -6.605879999999999530e-01 9.721999999999999531e-01 -1.671230999999999911e+00 3.287586999999999815e+00 -1.040899999999999985e-02 -1.163014999999999910e+00 8.918139999999999956e-01 1.257250000000000034e-01 1.014928000000000052e+00 5.259059999999999846e-01 -2.483213999999999810e+00 4.123580000000000023e-01 5.655959999999999877e-01 -6.622860000000000413e-01 -2.511534000000000155e+00 -2.119002000000000052e+00 -1.366773000000000016e+00 -4.847671000000000063e+00 -2.610720000000000263e-01 -5.429260000000000197e-01 -2.106250000000000067e-01 -5.707459999999999756e-01 9.694669999999999677e-01 1.168814999999999937e+00 -2.508270000000000222e-01 -2.077688000000000201e+00 8.276799999999999435e-02 1.409299999999999962e-02 8.858460000000000223e-01 -1.088675999999999977e+00 1.521473000000000075e+00 -1.139736000000000082e+00 1.787106000000000083e+00 -1.640967999999999982e+00 -1.340000000000000045e-03 -1.148941999999999908e+00 8.874020000000000241e-01 -3.209499999999999853e-02 1.060000000000000053e+00 1.280227000000000004e+00 -9.058549999999999658e-01 -4.474750000000000116e-01 -1.951381999999999950e+00 -9.874800000000000244e-02 7.194380000000000219e-01 1.679080000000000017e-01 7.201290000000000191e-01 1.185820000000000068e-01 -3.229200000000000126e-02 1.549013999999999891e+00 3.340610999999999997e+00 -4.683614999999999640e+00 4.522401000000000337e+00 -2.527670000000000194e-01 2.487769999999999981e-01 1.375737999999999905e+00 -3.350899999999999990e-01 1.968479999999999952e-01 1.889381999999999895e+00 9.427229999999999777e-01 -5.628349999999999742e-01 -6.715860000000000163e-01 1.217924999999999924e+00 -2.463982999999999812e+00 2.103383000000000003e+00 -5.989300000000000179e-02 -1.225819999999999965e-01 -5.843299999999999883e-02 -3.309143000000000168e+00 2.040738000000000163e+00 -1.152879999999999905e+00 8.797779999999999490e-01 -1.874835000000000029e+00 -1.831205999999999889e+00 -1.237249999999999961e+00 -6.664459999999999829e-01 -1.001004000000000005e+00 -4.972650999999999932e+00 3.981195000000000039e+00 -1.258010000000000073e+00 2.264094000000000051e+00 1.562715000000000076e+00 1.677494999999999958e+00 -6.959549999999999903e-01 -2.652689999999999770e-01 1.249598999999999904e+00 1.350689000000000028e+00 -2.976653999999999911e+00 5.723799999999999999e-01 -1.239592000000000027e+00 1.028089000000000031e+00 4.255729999999999791e-01 -2.953110000000000124e+00 -2.553830000000000267e-01 2.396999999999999964e-01 -3.480070000000000108e-01 1.559509999999999952e+00 -1.595118999999999954e+00 1.273514999999999953e+00 -5.912319999999999798e-01 1.221480000000000066e-01
6.710427000000000142e+00 -4.005406999999999940e+00 5.091631999999999714e+00 -1.921969000000000038e+00 3.642110000000000070e-01 -2.903160000000000185e+00 4.419150000000000023e-01 -2.095145000000000035e+00 -1.821935000000000082e+00 9.496649999999999814e-01 -9.485280000000000378e-01 -5.417079999999999673e-01 2.181982000000000088e+00 -9.232299999999999951e-01 3.507991000000000081e+00 1.827021999999999924e+00 1.286078999999999972e+00 1.041854999999999976e+00 -9.585190000000000099e-01 3.329804999999999904e+00 5.095412999999999748e+00 -1.200689999999999952e-01 -7.679690000000000127e-01 -1.433982000000000090e+00 4.691279999999999895e-01 -6.210200000000000164e-01 -7.791199999999999515e-02 1.559149999999999980e-01 -6.878199999999999870e-01 -2.176077999999999957e+00 2.069230000000000125e+00 2.029009999999999980e+00 3.353559000000000179e+00 1.984596000000000027e+00 -3.304247999999999852e+00 2.306197000000000052e+00 -1.443224000000000062e+00 2.514162999999999926e+00 3.266596999999999973e+00 -1.960509000000000057e+00 1.158880000000000049e-01 -1.388435000000000086e+00 -2.627660000000000107e+00 -4.216099999999999848e-01 -2.370534000000000141e+00 -4.054426000000000307e+00 2.080111000000000043e+00 -1.822950999999999988e+00 -1.815641000000000060e+00 -1.690047000000000077e+00 2.046610000000000096e-01 -1.837804999999999911e+00 -3.498310000000000031e+00 -5.514515000000000278e+00 1.967975999999999948e+00 -1.096381999999999968e+00 2.063537000000000177e+00 1.998729999999999896e+00 1.383650000000000047e+00 1.944585000000000008e+00 -1.358638999999999930e+00 -1.258458999999999994e+00 2.012617999999999796e+00 -5.825927000000000078e+00 -1.231303000000000036e+00 2.970906999999999965e+00 1.383056999999999981e+00 3.663279999999999870e+00 -3.645853999999999928e+00 1.910735999999999990e+00 -1.150290000000000035e+00 -1.720936000000000021e+00 1.510869000000000018e+00 6.340919999999999890e-01 2.643759000000000192e+00 -5.618720000000000381e-01 2.555166999999999966e+00 2.526639999999999997e+00 -4.521569000000000393e+00 6.813449999999999562e+00 2.228197999999999901e+00 3.860611000000000015e+00 -4.078058000000000405e+00 -5.417813999999999908e+00 -2.721515999999999824e+00 8.579999999999999849e-01 -4.336300000000000154e-01 -3.043743999999999783e+00 -1.426849999999999952e+00 -2.038966999999999974e+00 -1.975788000000000100e+00 1.749378000000000100e+00 3.226240999999999914e+00 2.191240000000000132e-01 1.412686000000000108e+00 1.979206999999999939e+00 -1.819383999999999890e+00 1.572584999999999900e+00 -3.435799999999999965e-02 -1.256919999999999982e-01 2.985167000000000126e+00 1.702083000000000013e+00 2.119707000000000008e+00 -2.650590999999999919e+00 -5.830311000000000021e+00 -2.281305999999999834e+00 1.500496000000000052e+00 9.554709999999999592e-01 -3.271830000000000016e-01 -2.824960000000000249e-01 -1.876233000000000040e+00 4.344422999999999924e+00 2.129503000000000146e+00 -6.587531000000000247e+00 9.038669999999999760e-01 1.355719999999999981e-01 -2.088944000000000134e+00 2.593351000000000184e+00 -2.130060999999999982e+00 1.489708999999999950e+00 1.870910999999999991e+00 1.931445000000000078e+00 5.467009999999999925e-01 1.109113000000000016e+00 3.840552999999999884e+00 -1.755589999999999984e+00 5.528980000000000006e-01 -1.333507999999999916e+00 -1.733935999999999922e+00 -1.754586999999999897e+00 -2.315665999999999780e+00 1.182487000000000066e+00 -2.554844000000000115e+00 -1.364460000000000117e-01 -6.579200000000000326e-02 6.137598999999999805e+00 3.266138999999999903e+00 2.990385999999999989e+00 -7.431039999999999868e-01 1.912320000000000131e-01 -1.547244999999999981e+00 3.395650000000000057e-01 -4.309509999999999730e-01 1.290049999999999919e+00 2.154965999999999937e+00 1.799352000000000062e+00 -2.051389999999999880e-01 -9.081740000000000368e-01 5.089160000000000350e-01 5.446879999999999500e-01 -7.371670000000000167e-01 -1.358109000000000011e+00 3.852320000000000189e-01 1.300540000000000029e-01 -2.116032999999999831e+00 1.211559999999999998e-01 -5.739290000000000225e-01 7.962350000000000261e-01 -2.938251999999999864e+00 -2.661013000000000073e+00 1.532702000000000009e+00 2.384155999999999942e+00 -5.081800000000000206e-02 2.379449999999999898e-01 -1.769997999999999960e+00 -1.407502000000000031e+00 3.633480000000000043e-01 3.506529999999999925e-01 -1.979080000000000006e-01 -7.423990000000000311e-01 6.466150000000000508e-01 1.804619999999999891e+00 -2.060407999999999795e+00 4.385780000000000234e-01 -7.424819999999999753e-01 6.183769999999999545e-01 -1.116390000000000021e-01 9.400079999999999547e-01 2.491948999999999970e+00 -5.382670000000000510e-01 -5.626339999999999675e-01 1.194846999999999992e+00 -7.157130000000000436e-01 4.582939999999999792e-01 2.760432999999999915e+00 9.210639999999999938e-01 2.782069999999999821e-01 1.771490000000000009e-01 1.995692999999999939e+00 1.891920000000000046e+00 -5.059679999999999733e-01 1.242213999999999929e+00 -2.460160999999999820e+00 -4.907299999999999857e-02 -7.372499999999999887e-02 7.456679999999999975e-01 -1.067989000000000077e+00 8.758770000000000167e-01 -2.116035000000000110e+00 -8.476529999999999898e-01 -8.378069999999999684e-01 3.351540000000000075e-01 -3.713887000000000160e+00 1.279109999999999969e-01 -1.618138999999999994e+00 -2.034371000000000151e+00 1.822424000000000044e+00 6.033020000000000049e-01 -2.249220000000000108e-01 -5.663820000000000521e-01 6.704599999999999449e-02 -1.432120000000000060e-01 4.960720000000000129e-01 2.454343000000000163e+00 1.491568999999999923e+00 5.975439999999999641e-01 -5.819998000000000005e+00 2.386560999999999932e+00 -4.179710000000000036e+00 4.073030000000000261e-01 -7.707200000000000162e-02 1.182906000000000013e+00 -5.901220000000000354e-01 6.431280000000000330e-01 1.284103999999999912e+00 -8.339259999999999451e-01 -6.793770000000000087e-01 3.467883000000000049e+00 1.035905000000000076e+00 -2.784899999999999876e-02 -4.231750000000000234e-01 7.520850000000000035e-01 -1.853974000000000011e+00 -6.792899999999999494e-01 1.379291999999999963e+00 -2.394769999999999843e+00 -2.051760999999999946e+00 -1.575600000000000056e-01 -2.541065000000000129e+00 1.126991000000000076e+00 8.665789999999999882e-01 -4.767120000000000246e-01 -6.837210000000000232e-01 1.232340999999999909e+00 -1.162259999999999960e-01 9.393700000000000661e-02 -1.371688000000000018e+00 -2.274058000000000135e+00 -7.489989999999999704e-01 4.911399999999999794e-02 -1.594029999999999891e-01 -2.177179000000000197e+00 1.202542000000000000e+00 -5.271169999999999467e-01 -2.317544999999999966e+00 6.447869999999999990e-01 2.064080000000000081e-01 8.109169999999999989e-01 -5.552850000000000286e-01 -5.879480000000000262e-01 -1.525984000000000007e+00 -4.057279999999999776e-01 -3.477345000000000130e+00 -2.803233000000000086e+00 7.894900000000000528e-02 4.962360000000000104e-01 -6.464550000000000018e-01 3.043518999999999863e+00 3.599040000000000017e-01 -2.250300000000000078e-01 2.408430000000000015e-01 1.674892000000000047e+00 -1.269104000000000010e+00 -6.953639999999999821e-01 -1.007276000000000060e+00 1.850265999999999966e+00 -1.050735999999999892e+00 -8.703389999999999738e-01 3.148711000000000038e+00 -5.379150000000000320e-01 2.337336000000000080e+00 7.803830000000000489e-01