2.333000000000000004e-02 2.685290000000000177e+00 2.289270000000000138e+00 1.844000000000000153e-02 2.670240000000000169e+00 7.339260000000000339e+00 1.018352999999999930e+01 7.981340000000000323e+00 2.315920000000000201e+00 1.008683000000000085e+01 8.057470000000000354e+00 7.595900000000000318e+00 5.255729999999999791e+00 2.642770000000000064e+00 2.343490000000000073e+00 4.989799999999999791e+00 2.762449999999999850e+00 7.410499999999999865e+00 5.213449999999999918e+00 7.855760000000000076e+00 2.355789999999999829e+00 5.122700000000000031e+00 8.006309999999999150e+00 7.534980000000000011e+00 2.583849999999999980e+00 5.004249999999999865e+00 2.480449999999999822e+00 2.692460000000000075e+00 5.063869999999999649e+00 7.428880000000000372e+00 2.598409999999999886e+00 1.008736999999999995e+01 2.431099999999999817e+00 2.551320000000000032e+00 1.019237000000000037e+01 7.790589999999999904e+00 7.667860000000000120e+00 4.943920000000000314e+00 2.271710000000000118e+00 7.736110000000000042e+00 4.950910000000000366e+00 7.460499999999999687e+00 7.583619999999999806e+00 1.029786999999999964e+01 2.380079999999999973e+00 7.720830000000000304e+00 1.019186999999999976e+01 7.458520000000000039e+00 2.647549999999999848e+00 2.180820000000000203e+00 5.080180000000000362e+00 2.673340000000000050e+00 2.414699999999999847e+00 1.017453000000000074e+01 2.540049999999999919e+00 7.645629999999999704e+00 5.210429999999999673e+00 2.584499999999999797e+00 7.594030000000000058e+00 1.012152999999999992e+01 7.647100000000000009e+00 2.249559999999999782e+00 4.982199999999999740e+00 7.744180000000000064e+00 2.311440000000000161e+00 1.004557999999999929e+01 7.695070000000000299e+00 7.595720000000000027e+00 5.146770000000000067e+00 7.562310000000000088e+00 7.577670000000000350e+00 1.013443000000000005e+01 1.862800000000000011e-01 1.061416999999999966e+01 4.972349999999999604e+00 2.182999999999999871e-02 1.510000000000000057e-02 2.130900000000000016e-01 1.018313000000000024e+01 5.317929999999999602e+00 4.951139999999999652e+00 6.744999999999999607e-02 5.319519999999999804e+00 9.993080000000000851e+00 5.080470000000000041e+00 1.665000000000000160e-02 5.175150000000000361e+00 5.071860000000000035e+00 2.238600000000000034e-01 5.830000000000000113e-03 5.225979999999999848e+00 5.319849999999999746e+00 4.943920000000000314e+00 5.049959999999999560e+00 5.258860000000000312e+00 3.742999999999999799e-02 4.276349999999999874e+00 4.437199999999999811e+00 3.416090000000000071e+00 4.497600000000000264e+00 4.580619999999999692e+00 8.490159999999999485e+00 4.341249999999999609e+00 9.654389999999999361e+00 3.583779999999999966e+00 4.408820000000000405e+00 9.773460000000000036e+00 8.582549999999999457e+00 9.311500000000000554e+00 4.336590000000000167e+00 3.433129999999999793e+00 9.495680000000000121e+00 4.329119999999999635e+00 8.432919999999999305e+00 9.319589999999999819e+00 9.848449999999999704e+00 3.449699999999999989e+00 3.799199999999999910e+00 1.212429999999999897e+00 1.491039999999999921e+00 3.876100000000000101e+00 9.566599999999999548e-01 6.393880000000000230e+00 3.809989999999999988e+00 6.213519999999999932e+00 1.419799999999999951e+00 3.855220000000000091e+00 6.620230000000000281e+00 6.395800000000000374e+00 8.972400000000000375e+00 1.009249999999999980e+00 1.385880000000000001e+00 8.765019999999999811e+00 7.791799999999999837e-01 6.118070000000000341e+00 9.036889999999999645e+00 6.211359999999999992e+00 1.404779999999999918e+00 8.934100000000000819e+00 6.193360000000000198e+00 6.446019999999999861e+00 4.392570000000000086e+00 1.818820000000000103e+00 4.108539999999999637e+00 4.463870000000000005e+00 1.943000000000000060e+00 9.307119999999999393e+00 4.494089999999999918e+00 7.038050000000000139e+00 4.041199999999999903e+00 4.272389999999999688e+00 7.145450000000000301e+00 9.173759999999999692e+00 9.597939999999999472e+00 1.796750000000000069e+00 4.155490000000000350e+00 9.444480000000000430e+00 1.377210000000000045e+00 8.993940000000000268e+00 9.605079999999999174e+00 7.160370000000000346e+00 4.112490000000000201e+00 9.541050000000000253e+00 6.988520000000000287e+00 9.135550000000000281e+00 4.080989999999999895e+00 3.672610000000000152e+00 9.076899999999999968e-01 3.783640000000000114e+00 3.814490000000000158e+00 5.840489999999999959e+00 3.973689999999999944e+00 9.009000000000000341e+00 1.054759999999999920e+00 3.678150000000000031e+00 9.024739999999999540e+00 6.278120000000000367e+00 8.941480000000000317e+00 3.637980000000000214e+00 8.068800000000000416e-01 8.705940000000000012e+00 3.538019999999999943e+00 6.246739999999999959e+00 8.966350000000000264e+00 9.078569999999999141e+00 9.759400000000000297e-01 9.035840000000000316e+00 8.784620000000000317e+00 5.903819999999999624e+00 2.003919999999999924e+00 4.533200000000000007e-01 4.253180000000000405e+00 1.845890000000000031e+00 5.835799999999999876e-01 9.308609999999999829e+00 1.917969999999999953e+00 5.919179999999999886e+00 4.068620000000000125e+00 2.079720000000000013e+00 5.784500000000000419e+00 9.193279999999999674e+00 6.974590000000000067e+00 5.760199999999999765e-01 4.076139999999999652e+00 6.962480000000000224e+00 4.591299999999999826e-01 9.029690000000000438e+00 7.080650000000000333e+00 5.979899999999999771e+00 4.019379999999999953e+00 7.199189999999999756e+00 5.872630000000000017e+00 9.200309999999999988e+00 1.355830000000000091e+00 3.748920000000000030e+00 9.606099999999999639e-01 1.016059999999999963e+00 3.830449999999999910e+00 6.139350000000000307e+00 1.324929999999999941e+00 9.156760000000000232e+00 1.145510000000000028e+00 1.187969999999999970e+00 9.208830000000000737e+00 6.176249999999999574e+00 6.366979999999999862e+00 3.822680000000000078e+00 1.163999999999999924e+00 6.258610000000000007e+00 3.908770000000000078e+00 6.274910000000000210e+00 6.265100000000000335e+00 9.196379999999999555e+00 8.331499999999999462e-01 6.406480000000000175e+00 9.378289999999999793e+00 6.073769999999999669e+00 1.814380000000000104e+00 3.228369999999999962e+00 3.614590000000000192e+00 2.063579999999999970e+00 3.198949999999999960e+00 8.510659999999999670e+00 1.695759999999999934e+00 8.529579999999999274e+00 3.463600000000000012e+00 1.786769999999999969e+00 8.605140000000000455e+00 8.613379999999999370e+00 6.658089999999999620e+00 3.430019999999999847e+00 3.549720000000000208e+00 6.929850000000000065e+00 3.181560000000000166e+00 8.502359999999999474e+00 7.007319999999999993e+00 8.242350000000000065e+00 3.200180000000000025e+00 6.857499999999999929e+00 8.484930000000000305e+00 8.464930000000000732e+00 1.166520000000000001e+00 1.305569999999999897e+00 1.447419999999999929e+00 1.151610000000000023e+00 1.175850000000000062e+00 6.558830000000000382e+00 1.337909999999999933e+00 6.379559999999999675e+00 1.488620000000000054e+00 1.287649999999999961e+00 6.590930000000000177e+00 6.577560000000000073e+00 6.416999999999999815e+00 1.250099999999999989e+00 1.307569999999999899e+00 6.252150000000000318e+00 1.537220000000000031e+00 6.432750000000000412e+00 6.390039999999999942e+00 6.465290000000000425e+00 1.195489999999999942e+00 6.365160000000000373e+00 6.616509999999999891e+00 6.350530000000000008e+00
1.012822000000000067e+01 2.634840000000000071e+00 2.316120000000000179e+00 1.646900000000000031e-01 2.693330000000000002e+00 7.414209999999999745e+00 1.030000000000000100e-03 7.917200000000000237e+00 2.364780000000000104e+00 1.018981999999999921e+01 8.011279999999999291e+00 7.620890000000000164e+00 5.122880000000000322e+00 2.734119999999999884e+00 2.445910000000000029e+00 5.173879999999999590e+00 2.485819999999999919e+00 7.427069999999999617e+00 5.137389999999999901e+00 8.087540000000000617e+00 2.414229999999999876e+00 5.355929999999999858e+00 7.802039999999999864e+00 7.509789999999999743e+00 2.636540000000000106e+00 5.147759999999999891e+00 2.317320000000000046e+00 2.726410000000000000e+00 4.929100000000000037e+00 7.663199999999999790e+00 2.541049999999999809e+00 1.017647999999999975e+01 2.445349999999999913e+00 2.623089999999999922e+00 1.044968000000000075e+01 7.605299999999999727e+00 7.976659999999999862e+00 5.314549999999999663e+00 2.403789999999999871e+00 7.818450000000000344e+00 4.807750000000000412e+00 7.743610000000000326e+00 7.534539999999999793e+00 1.025178000000000011e+01 2.371309999999999807e+00 7.745589999999999975e+00 1.036697999999999986e+01 7.641079999999999650e+00 2.665049999999999919e+00 2.374550000000000161e+00 4.885239999999999583e+00 2.407690000000000108e+00 2.357549999999999812e+00 1.018116000000000021e+01 2.613140000000000018e+00 7.774289999999999701e+00 5.168890000000000207e+00 2.858620000000000161e+00 7.775290000000000035e+00 9.983879999999999200e+00 7.630620000000000402e+00 2.362690000000000179e+00 5.169139999999999624e+00 7.572250000000000369e+00 2.526019999999999932e+00 4.671000000000000152e-02 7.634369999999999656e+00 7.498990000000000045e+00 5.129710000000000214e+00 7.793190000000000062e+00 7.823920000000000208e+00 1.013446000000000069e+01 -9.509999999999999357e-03 1.060668000000000077e+01 5.043050000000000033e+00 1.022802000000000078e+01 1.145499999999999990e-01 1.017436000000000007e+01 8.575000000000000677e-02 5.472699999999999676e+00 4.975810000000000066e+00 2.408599999999999908e-01 5.379400000000000404e+00 1.013735999999999926e+01 5.148069999999999702e+00 1.032377999999999929e+01 5.153229999999999755e+00 4.947359999999999758e+00 1.874999999999999931e-02 1.016005999999999965e+01 5.169609999999999594e+00 5.016259999999999941e+00 5.024899999999999700e+00 5.122930000000000206e+00 5.248059999999999725e+00 2.476000000000000076e-02 4.131210000000000271e+00 4.351069999999999993e+00 3.476039999999999797e+00 4.310480000000000089e+00 4.241909999999999847e+00 8.677080000000000126e+00 4.298939999999999984e+00 9.797060000000000102e+00 3.476220000000000088e+00 4.195140000000000313e+00 9.397389999999999688e+00 8.778200000000000003e+00 9.422200000000000131e+00 4.374590000000000423e+00 3.335999999999999854e+00 9.603709999999999525e+00 4.403129999999999988e+00 8.525100000000000122e+00 9.518739999999999313e+00 9.710689999999999600e+00 3.323030000000000150e+00 4.008700000000000152e+00 9.740699999999999914e-01 1.487209999999999921e+00 3.743749999999999911e+00 7.029600000000000293e-01 6.141840000000000188e+00 4.025229999999999642e+00 6.309540000000000148e+00 1.241559999999999997e+00 3.833299999999999930e+00 6.368249999999999744e+00 6.532899999999999707e+00 8.747210000000000818e+00 1.146460000000000035e+00 1.247069999999999901e+00 9.159269999999999357e+00 9.096400000000000041e-01 6.675449999999999662e+00 9.429639999999999134e+00 6.246019999999999683e+00 1.301409999999999956e+00 8.951710000000000278e+00 6.230690000000000062e+00 6.557529999999999859e+00 4.500740000000000407e+00 1.770389999999999908e+00 3.984109999999999818e+00 4.075330000000000119e+00 1.522520000000000095e+00 9.154780000000000584e+00 4.294789999999999885e+00 6.960820000000000007e+00 3.922029999999999905e+00 4.390579999999999927e+00 6.757830000000000226e+00 9.052469999999999573e+00 9.529590000000000671e+00 1.930409999999999959e+00 4.152120000000000033e+00 9.714150000000000063e+00 1.936129999999999907e+00 9.256660000000000110e+00 9.182339999999999947e+00 6.871520000000000294e+00 3.870439999999999880e+00 9.691169999999999618e+00 7.314339999999999620e+00 9.308080000000000354e+00 3.486950000000000216e+00 3.616880000000000095e+00 1.192620000000000013e+00 3.853429999999999911e+00 3.687199999999999811e+00 6.160379999999999967e+00 3.928859999999999797e+00 9.020270000000000010e+00 9.965100000000000069e-01 3.997689999999999966e+00 8.767599999999999838e+00 6.343169999999999753e+00 8.797100000000000364e+00 3.804170000000000051e+00 9.980999999999999872e-01 8.832739999999999370e+00 3.709420000000000162e+00 6.306009999999999671e+00 8.895670000000000854e+00 8.934110000000000440e+00 1.112049999999999983e+00 8.974690000000000722e+00 8.958890000000000242e+00 6.326019999999999754e+00 1.712469999999999937e+00 6.275399999999999867e-01 3.913879999999999804e+00 1.766710000000000003e+00 6.229500000000000037e-01 9.184860000000000468e+00 1.845620000000000038e+00 6.044839999999999769e+00 4.092850000000000321e+00 1.941769999999999996e+00 5.970729999999999649e+00 9.305749999999999744e+00 7.055559999999999832e+00 4.310899999999999732e-01 4.208520000000000039e+00 6.601329999999999920e+00 7.983400000000000496e-01 9.216969999999999885e+00 6.891910000000000203e+00 5.814689999999999692e+00 4.119150000000000311e+00 7.071340000000000181e+00 6.073269999999999946e+00 9.188480000000000203e+00 1.172779999999999934e+00 3.973580000000000112e+00 8.510400000000000187e-01 1.281600000000000072e+00 4.316239999999999633e+00 6.332480000000000331e+00 1.072370000000000045e+00 9.384259999999999380e+00 1.005549999999999944e+00 1.329250000000000043e+00 9.488799999999999457e+00 6.101219999999999644e+00 6.410879999999999690e+00 4.046009999999999884e+00 1.059569999999999901e+00 6.415230000000000210e+00 3.803129999999999900e+00 6.249100000000000321e+00 6.159679999999999822e+00 9.458399999999999253e+00 1.157229999999999981e+00 6.466440000000000410e+00 9.042020000000000834e+00 6.218770000000000131e+00 1.622800000000000020e+00 3.358159999999999812e+00 3.482610000000000205e+00 1.990159999999999929e+00 3.129000000000000004e+00 8.257649999999999935e+00 1.755349999999999966e+00 8.513650000000000162e+00 3.467480000000000118e+00 1.678180000000000005e+00 8.677759999999999252e+00 8.618290000000000006e+00 6.926709999999999923e+00 3.193350000000000133e+00 3.492039999999999811e+00 6.643250000000000099e+00 3.379340000000000011e+00 8.715500000000000469e+00 6.744930000000000092e+00 8.708780000000000854e+00 3.696390000000000065e+00 6.905190000000000161e+00 8.709170000000000300e+00 8.659299999999999997e+00 1.104230000000000045e+00 1.311479999999999979e+00 1.389359999999999928e+00 1.428090000000000082e+00 1.521640000000000104e+00 6.375869999999999926e+00 1.749370000000000092e+00 6.710099999999999731e+00 1.380659999999999998e+00 9.303799999999999848e-01 7.009170000000000122e+00 6.148030000000000328e+00 6.545799999999999841e+00 1.365240000000000009e+00 1.588449999999999918e+00 6.515799999999999592e+00 1.405229999999999979e+00 6.678279999999999994e+00 6.571749999999999758e+00 6.815929999999999822e+00 1.312270000000000048e+00 6.502010000000000289e+00 6.466709999999999958e+00 6.504349999999999632e+00
1.017242000000000068e+01 2.704990000000000006e+00 2.414410000000000167e+00 7.352999999999999814e-02 2.547969999999999846e+00 7.577149999999999608e+00 1.018792000000000009e+01 7.842240000000000322e+00 2.459769999999999790e+00 5.419999999999999818e-02 7.835289999999999644e+00 7.425760000000000360e+00 5.052200000000000024e+00 2.671839999999999993e+00 2.285789999999999988e+00 5.259970000000000034e+00 2.603359999999999896e+00 7.447330000000000005e+00 5.235490000000000421e+00 7.877040000000000042e+00 2.335659999999999847e+00 5.064949999999999619e+00 8.086700000000000443e+00 7.397389999999999688e+00 2.588010000000000144e+00 4.983640000000000292e+00 2.436490000000000045e+00 2.520999999999999908e+00 4.971230000000000260e+00 7.403410000000000046e+00 2.678040000000000198e+00 1.034609999999999985e+01 2.393419999999999881e+00 2.369949999999999779e+00 1.029359999999999964e+01 7.420980000000000132e+00 7.605990000000000251e+00 4.971980000000000288e+00 2.279780000000000140e+00 7.801210000000000200e+00 4.921750000000000291e+00 7.571060000000000123e+00 7.751750000000000362e+00 1.019560000000000066e+01 2.460620000000000029e+00 7.782429999999999737e+00 1.025399999999999956e+01 7.336020000000000429e+00 2.564350000000000129e+00 2.339300000000000157e+00 5.096420000000000172e+00 2.516300000000000203e+00 2.397530000000000161e+00 4.596000000000000085e-02 2.546009999999999884e+00 7.609160000000000146e+00 4.943030000000000257e+00 2.436310000000000198e+00 7.709550000000000125e+00 2.129900000000000126e-01 7.638169999999999682e+00 2.424589999999999801e+00 5.024799999999999933e+00 7.757760000000000211e+00 2.228349999999999831e+00 1.016662999999999961e+01 7.786150000000000126e+00 7.657750000000000057e+00 5.031959999999999766e+00 7.663319999999999688e+00 7.637710000000000221e+00 1.004282000000000075e+01 8.790000000000000591e-02 6.719999999999999585e-02 5.073360000000000092e+00 -3.989999999999999623e-03 1.048269999999999946e+01 1.015122999999999998e+01 1.021532000000000018e+01 5.143819999999999837e+00 5.056549999999999656e+00 1.074600000000000000e-01 5.323100000000000165e+00 4.934999999999999803e-02 5.079830000000000290e+00 8.165999999999999648e-02 5.054070000000000285e+00 5.132189999999999586e+00 1.061241000000000057e+01 2.755000000000000157e-02 5.204939999999999678e+00 5.235330000000000261e+00 5.177830000000000155e+00 5.100769999999999804e+00 5.491570000000000285e+00 1.010102999999999973e+01 4.085569999999999702e+00 4.280800000000000161e+00 3.650520000000000209e+00 4.309660000000000046e+00 4.463429999999999787e+00 8.514060000000000628e+00 4.642339999999999911e+00 9.644030000000000769e+00 3.297989999999999977e+00 4.120829999999999771e+00 9.559049999999999159e+00 8.461629999999999541e+00 9.531459999999999155e+00 4.312079999999999913e+00 3.375230000000000175e+00 9.475310000000000343e+00 4.395719999999999850e+00 8.691629999999999967e+00 9.551199999999999690e+00 9.687839999999999563e+00 3.376970000000000027e+00 3.734360000000000124e+00 1.095080000000000053e+00 1.392130000000000090e+00 3.855609999999999982e+00 1.037290000000000045e+00 6.490980000000000416e+00 3.739050000000000207e+00 6.510819999999999830e+00 1.334179999999999922e+00 3.903160000000000185e+00 6.171030000000000015e+00 6.520990000000000286e+00 8.829380000000000450e+00 8.268600000000000394e-01 1.172909999999999897e+00 9.005580000000000140e+00 9.703500000000000458e-01 6.495239999999999903e+00 8.844319999999999737e+00 6.275409999999999933e+00 1.405529999999999946e+00 9.158530000000000726e+00 6.233299999999999841e+00 6.430419999999999803e+00 4.297959999999999781e+00 1.614719999999999933e+00 3.945110000000000117e+00 4.446740000000000137e+00 1.580289999999999973e+00 9.147650000000000503e+00 4.569020000000000081e+00 6.947580000000000311e+00 3.968109999999999804e+00 4.141860000000000319e+00 7.245320000000000427e+00 9.046939999999999316e+00 9.440630000000000521e+00 1.974550000000000027e+00 4.160169999999999924e+00 9.382979999999999876e+00 1.642269999999999897e+00 9.061339999999999506e+00 9.722810000000000841e+00 7.135679999999999801e+00 4.160490000000000244e+00 9.388669999999999405e+00 7.093790000000000262e+00 9.080750000000000099e+00 3.775939999999999852e+00 3.786179999999999879e+00 1.192530000000000090e+00 3.892990000000000173e+00 3.624750000000000139e+00 6.095839999999999925e+00 3.823589999999999822e+00 9.139480000000000715e+00 8.964299999999999491e-01 3.818719999999999892e+00 9.112370000000000303e+00 5.943550000000000111e+00 8.806630000000000180e+00 3.578469999999999818e+00 1.114859999999999962e+00 8.825739999999999696e+00 3.710589999999999833e+00 6.093829999999999636e+00 9.094580000000000553e+00 8.811139999999999972e+00 1.092710000000000070e+00 9.105259999999999465e+00 8.904560000000000031e+00 6.147009999999999863e+00 1.828950000000000076e+00 6.075500000000000345e-01 4.059079999999999799e+00 1.799960000000000004e+00 6.609500000000000375e-01 9.023450000000000415e+00 1.784699999999999953e+00 5.913850000000000051e+00 4.126739999999999853e+00 1.618649999999999922e+00 5.794940000000000424e+00 9.215709999999999624e+00 7.276939999999999742e+00 5.407699999999999729e-01 4.125720000000000276e+00 6.778719999999999857e+00 4.913100000000000245e-01 8.969929999999999737e+00 6.990540000000000198e+00 6.010019999999999918e+00 4.080540000000000056e+00 6.838289999999999758e+00 5.970640000000000391e+00 9.114509999999999224e+00 1.201379999999999892e+00 3.995239999999999903e+00 1.130730000000000013e+00 1.092929999999999957e+00 3.868700000000000028e+00 6.274269999999999570e+00 1.191920000000000091e+00 9.281510000000000815e+00 9.842899999999999983e-01 1.330089999999999995e+00 9.157099999999999795e+00 5.917699999999999960e+00 6.265539999999999665e+00 4.060920000000000307e+00 1.037039999999999962e+00 6.469249999999999723e+00 4.037180000000000213e+00 6.351210000000000022e+00 6.465480000000000338e+00 9.266450000000000742e+00 9.494399999999999507e-01 6.433069999999999844e+00 9.180699999999999861e+00 5.959100000000000286e+00 1.725840000000000041e+00 3.242140000000000022e+00 3.523750000000000160e+00 1.658050000000000024e+00 3.220489999999999853e+00 8.658810000000000784e+00 1.873050000000000104e+00 8.464389999999999858e+00 3.315869999999999873e+00 1.528270000000000017e+00 8.662229999999999208e+00 8.612809999999999633e+00 6.633060000000000400e+00 3.347799999999999887e+00 3.664060000000000095e+00 7.048060000000000436e+00 3.261470000000000091e+00 8.618880000000000763e+00 6.999539999999999651e+00 8.270559999999999690e+00 3.199329999999999785e+00 6.979470000000000063e+00 8.462189999999999657e+00 8.292030000000000456e+00 1.211440000000000072e+00 1.454890000000000017e+00 1.288259999999999961e+00 1.352700000000000014e+00 1.289520000000000000e+00 6.353439999999999976e+00 1.195759999999999934e+00 6.585639999999999716e+00 1.337550000000000017e+00 1.508480000000000043e+00 6.422889999999999766e+00 6.477179999999999715e+00 6.257990000000000386e+00 1.216509999999999980e+00 1.448690000000000033e+00 6.429319999999999702e+00 1.293919999999999959e+00 6.475909999999999833e+00 6.441320000000000157e+00 6.500549999999999606e+00 1.182779999999999943e+00 6.323120000000000296e+00 6.758449999999999847e+00 6.391020000000000145e+00
1.007306999999999952e+01 2.413660000000000139e+00 2.290739999999999998e+00 1.000306999999999924e+01 2.640179999999999971e+00 7.401679999999999815e+00 9.913769999999999527e+00 7.836979999999999613e+00 2.265690000000000204e+00 5.677000000000000102e-02 7.825129999999999697e+00 7.428449999999999775e+00 5.123630000000000351e+00 2.605189999999999895e+00 2.323160000000000114e+00 5.071649999999999991e+00 2.728000000000000203e+00 7.393270000000000231e+00 4.878440000000000332e+00 7.889520000000000088e+00 2.413809999999999789e+00 4.959859999999999935e+00 7.831610000000000404e+00 7.277660000000000018e+00 2.583470000000000155e+00 4.720349999999999824e+00 2.318649999999999878e+00 2.538469999999999782e+00 4.766939999999999955e+00 7.316399999999999793e+00 2.419020000000000170e+00 1.009747999999999912e+01 2.416180000000000216e+00 2.595219999999999860e+00 1.009458000000000055e+01 7.310950000000000060e+00 7.574279999999999902e+00 4.916439999999999699e+00 2.262999999999999901e+00 7.640649999999999942e+00 4.997180000000000177e+00 7.324390000000000178e+00 7.720390000000000086e+00 1.012728000000000073e+01 2.285540000000000127e+00 7.486480000000000246e+00 1.005788000000000082e+01 7.392149999999999999e+00 2.601259999999999906e+00 2.394120000000000026e+00 4.976130000000000386e+00 2.570110000000000117e+00 2.337260000000000115e+00 6.329999999999999516e-02 2.242230000000000167e+00 7.519879999999999676e+00 4.967559999999999754e+00 2.573449999999999793e+00 7.496699999999999697e+00 9.946999999999999176e+00 7.633689999999999642e+00 2.325419999999999821e+00 5.184960000000000235e+00 7.743129999999999846e+00 2.277670000000000083e+00 1.699000000000000163e-02 7.528599999999999959e+00 7.518989999999999618e+00 4.913960000000000328e+00 7.431890000000000107e+00 7.557940000000000325e+00 1.002025000000000077e+01 1.001257000000000019e+01 1.039607999999999954e+01 5.203199999999999825e+00 1.001376999999999917e+01 1.033008000000000060e+01 9.811899999999999622e+00 3.198999999999999760e-02 5.243520000000000181e+00 5.042019999999999946e+00 1.891500000000000126e-01 5.263729999999999798e+00 1.861000000000000154e-02 5.096429999999999794e+00 1.567699999999999927e-01 4.954500000000000348e+00 4.960530000000000328e+00 1.044557999999999964e+01 1.001125000000000043e+01 5.192999999999999616e+00 5.097470000000000390e+00 4.959839999999999804e+00 5.106259999999999799e+00 5.285350000000000215e+00 7.965999999999999470e-02 4.398130000000000095e+00 4.393340000000000245e+00 3.324250000000000149e+00 4.356130000000000280e+00 4.345150000000000290e+00 8.363149999999999196e+00 4.526480000000000281e+00 9.762130000000000862e+00 3.289740000000000109e+00 4.342410000000000103e+00 9.549390000000000711e+00 8.249230000000000729e+00 9.488739999999999952e+00 4.333160000000000345e+00 3.248139999999999805e+00 9.547629999999999839e+00 4.406159999999999854e+00 8.228619999999999379e+00 9.344070000000000320e+00 9.694900000000000517e+00 3.409629999999999939e+00 3.738059999999999938e+00 1.195489999999999942e+00 1.510899999999999910e+00 3.866960000000000175e+00 1.196039999999999992e+00 6.590209999999999901e+00 3.769579999999999931e+00 6.381339999999999790e+00 1.437899999999999956e+00 3.843230000000000146e+00 6.186480000000000423e+00 6.447400000000000020e+00 8.979779999999999873e+00 9.713899999999999757e-01 1.266520000000000090e+00 8.766220000000000567e+00 1.069509999999999961e+00 6.359160000000000146e+00 8.919909999999999783e+00 6.202539999999999942e+00 1.282270000000000021e+00 8.797610000000000596e+00 6.501520000000000188e+00 6.335110000000000241e+00 4.424140000000000406e+00 1.970239999999999991e+00 4.203380000000000116e+00 4.359140000000000015e+00 1.753400000000000070e+00 8.941250000000000142e+00 4.236839999999999939e+00 6.934050000000000047e+00 3.969370000000000065e+00 4.294620000000000104e+00 7.114230000000000054e+00 9.127219999999999445e+00 9.290300000000000225e+00 1.716720000000000024e+00 3.993660000000000210e+00 9.640869999999999607e+00 1.689840000000000009e+00 8.994889999999999830e+00 9.501580000000000581e+00 7.017400000000000304e+00 4.046990000000000087e+00 9.416909999999999670e+00 7.168849999999999945e+00 9.265420000000000655e+00 3.908790000000000209e+00 3.690510000000000179e+00 9.514099999999999779e-01 3.902540000000000120e+00 3.754039999999999822e+00 5.950300000000000367e+00 3.821680000000000188e+00 9.051780000000000825e+00 1.028699999999999948e+00 3.515379999999999949e+00 9.021140000000000825e+00 5.851409999999999556e+00 8.950359999999999872e+00 3.691009999999999902e+00 1.033870000000000067e+00 8.898720000000000852e+00 3.756940000000000168e+00 5.965659999999999741e+00 8.894980000000000331e+00 8.908649999999999736e+00 9.548999999999999710e-01 8.587650000000000006e+00 8.998060000000000613e+00 5.910519999999999996e+00 1.852400000000000047e+00 5.909900000000000153e-01 4.087399999999999700e+00 1.888859999999999983e+00 2.891599999999999726e-01 9.085520000000000707e+00 1.894579999999999931e+00 5.854099999999999859e+00 3.856570000000000054e+00 1.728539999999999965e+00 5.784819999999999851e+00 9.027649999999999508e+00 6.765780000000000349e+00 5.492500000000000160e-01 3.871939999999999937e+00 6.970489999999999853e+00 4.631500000000000061e-01 9.079179999999999140e+00 7.014170000000000016e+00 5.780739999999999768e+00 3.936780000000000168e+00 6.931589999999999918e+00 5.881920000000000037e+00 9.082000000000000739e+00 1.287849999999999939e+00 3.810519999999999907e+00 1.111790000000000056e+00 1.288529999999999953e+00 3.728130000000000166e+00 6.128910000000000302e+00 1.243109999999999937e+00 9.103160000000000807e+00 8.226099999999999524e-01 9.146100000000000341e-01 8.875439999999999330e+00 5.843040000000000234e+00 6.506649999999999601e+00 3.812139999999999862e+00 8.035299999999999665e-01 6.404819999999999958e+00 3.821429999999999882e+00 6.040280000000000094e+00 6.298670000000000435e+00 9.152810000000000556e+00 9.919299999999999784e-01 6.087559999999999860e+00 8.912449999999999761e+00 5.846619999999999706e+00 1.777819999999999956e+00 3.049949999999999939e+00 3.349880000000000191e+00 1.738939999999999930e+00 3.158760000000000012e+00 8.457449999999999690e+00 1.682269999999999932e+00 8.464420000000000499e+00 3.396269999999999900e+00 2.060970000000000191e+00 8.249940000000000495e+00 7.999450000000000394e+00 6.922939999999999650e+00 3.144489999999999785e+00 3.255599999999999827e+00 7.225310000000000343e+00 3.002409999999999801e+00 8.216169999999999973e+00 6.846379999999999910e+00 8.362059999999999604e+00 3.267770000000000064e+00 6.841590000000000060e+00 8.319520000000000692e+00 8.263109999999999289e+00 1.237559999999999993e+00 1.153019999999999934e+00 1.378090000000000037e+00 1.153280000000000083e+00 1.166520000000000001e+00 6.202689999999999593e+00 1.213950000000000085e+00 6.582340000000000302e+00 1.364719999999999933e+00 1.278799999999999937e+00 6.178259999999999863e+00 6.448190000000000310e+00 6.285219999999999807e+00 1.107760000000000078e+00 1.393049999999999899e+00 6.332720000000000127e+00 9.907099999999999795e-01 6.472269999999999968e+00 6.378820000000000157e+00 6.556289999999999729e+00 1.418690000000000007e+00 6.295029999999999681e+00 6.197119999999999962e+00 6.472780000000000200e+00