-9.301532492600000523e+02
-9.276705684300000030e+02
-9.338113146599999936e+02
-9.273423522499999763e+02
-9.319674214299999448e+02
-9.301132560300000023e+02
-9.352204114200000049e+02
-9.335558632500000158e+02
-9.303369084299999940e+02
-9.366565789700000551e+02
-9.374374996599999577e+02
-9.228888797299999851e+02
-9.395289275600000565e+02
-9.279858136399999466e+02
-9.354415931800000408e+02
-9.376505296100000351e+02
-9.251354009100000440e+02
-9.337054708299999675e+02
-9.355141933300000119e+02
-9.342248192800000197e+02
-9.325056352599999627e+02
-9.318693981899999699e+02
-9.319541903399999683e+02
-9.300704538700000512e+02
-9.247787063700000090e+02
-9.323473633500000233e+02
-9.346505888599999707e+02
-9.280210268499999984e+02
-9.326879677199999605e+02
-9.378507426600000372e+02
-9.354924307400000316e+02
-9.326350084900000184e+02
-9.279766551100000243e+02
-9.281900694600000179e+02
-9.231797442499999988e+02
-9.356199172999999973e+02
-9.351464630200000556e+02
-9.259703323500000351e+02
-9.327706037499999638e+02
-9.332332006100000399e+02
-9.277705049700000473e+02
-9.324609661900000219e+02
-9.303022931100000505e+02
-9.356015254599999480e+02
-9.357820735200000399e+02
-9.356270028200000297e+02
-9.362640033799999628e+02
-9.339147720400000026e+02
-9.332449860299999500e+02
-9.361332855299999665e+02
