-1.772950000000000081e-01 -1.707670000000000021e-01 2.652470999999999801e+00 -2.244515999999999956e+00 -1.500205999999999928e+00 8.047549999999999981e-01 -2.731517000000000195e+00 3.858779999999999877e+00 8.882860000000000200e-01 9.947740000000000471e-01 -1.193964999999999943e+00 -1.140303999999999984e+00 1.345226000000000033e+00 1.833590000000000053e+00 -4.187980000000000036e-01 5.049504999999999910e+00 2.286700999999999873e+00 -1.701859999999999928e+00 -2.737870000000000026e-01 -4.572450000000000125e-01 4.773761999999999617e+00 -5.010826999999999920e+00 1.971046999999999993e+00 -5.386760000000000437e-01 8.672499999999999654e-01 8.035619999999999985e-01 1.308445999999999998e+00 -3.252289999999999903e+00 -1.416536000000000017e+00 -1.174843999999999999e+00 3.766650000000000276e-01 9.645120000000000360e-01 -4.991479999999999806e-01 5.047988000000000142e+00 -2.221220000000000194e+00 -4.125422999999999618e+00 -3.123587000000000113e+00 5.540650000000000297e-01 -2.643209999999999726e-01 -1.013241000000000058e+00 7.658449999999999980e-01 -1.455920000000000103e+00 2.726540000000000075e-01 -3.580280999999999825e+00 1.736477000000000048e+00 -1.157464000000000048e+00 2.370715999999999823e+00 2.864358000000000182e+00 3.490909999999999846e-01 3.134862000000000037e+00 -6.578789999999999916e-01 -6.029951999999999757e+00 -2.886356999999999839e+00 2.827882999999999925e+00 -2.264387999999999845e+00 1.415542000000000078e+00 4.002000000000000002e-02 3.219571999999999878e+00 -6.162539999999999685e-01 -2.542281000000000013e+00 3.553309000000000051e+00 2.697100000000000053e-01 1.286818999999999935e+00 4.900415999999999883e+00 -4.443595000000000184e+00 1.644652999999999921e+00 2.895710000000000228e-01 -1.507979999999999876e-01 -3.512884999999999813e+00 -3.903769999999999740e-01 1.202020000000000033e-01 6.939610000000000500e-01 -1.903980000000000117e-01 2.673795000000000144e+00 -3.550940000000000207e-01 -4.403429999999999844e-01 1.620710000000000095e+00 1.640471999999999930e+00 -7.794675999999999938e+00 -6.130106999999999751e+00 3.117391000000000023e+00 9.202919999999999989e-01 1.661450000000000093e+00 -3.710132000000000208e+00 -4.128103000000000300e+00 -3.703640000000000265e-01 4.668441999999999759e+00 -4.730570000000000053e-01 7.610149999999999970e-01 -1.093380999999999936e+00 3.380754000000000037e+00 9.911999999999999977e-02 5.881471000000000338e+00 2.978572000000000219e+00 2.287568999999999964e+00 9.617109999999999825e-01 -2.831297000000000175e+00 -3.913099999999999912e-01 3.339802000000000159e+00 1.379140999999999950e+00 -2.094962000000000213e+00 -5.392289999999999583e-01 -1.183553000000000077e+00 -2.262450000000000017e-01 -1.681553999999999993e+00 1.171319999999999917e+00 -4.943509999999999849e-01 -1.464372000000000007e+00 -9.200369999999999937e-01 -1.088006999999999946e+00 -3.825044000000000111e+00 -9.824819999999999665e-01 -5.504059999999999508e-01 -9.611840000000000384e-01 5.141388000000000069e+00 -9.214240000000000208e-01 -3.128643999999999981e+00 -3.515900000000000275e-02 3.636112999999999928e+00 -7.081604999999999706e+00 1.623453000000000035e+00 -2.085319999999999951e-01 2.272343999999999919e+00 1.609215000000000062e+00 6.102950000000000319e-01 -1.255439999999999889e-01 6.065737999999999630e+00 8.088673999999999253e+00 1.414759999999999907e-01 -1.334553000000000100e+00 1.620060000000000056e+00 3.534939000000000053e+00 4.945499999999999896e-02 -1.866057999999999995e+00 -3.221879999999999744e-01 -5.164210000000000189e-01 -2.079600000000000115e+00 -1.693351000000000051e+00 -2.668339000000000016e+00 -2.194776000000000060e+00 -1.015370000000000106e+00 -2.575069999999999859e-01 6.436629999999999852e-01 -1.436509000000000036e+00 -3.552652999999999839e+00 1.284694999999999920e+00 1.400018999999999902e+00 4.040316999999999936e+00 1.825302999999999898e+00 -1.177567000000000030e+00 -4.827179999999999804e-01 -4.220101999999999798e+00 -9.101660000000000306e-01 -9.379699999999999704e-01 1.883817000000000075e+00 2.262840000000000129e-01 8.209170000000000078e-01 2.530909999999999993e+00 -6.829888000000000403e+00 -6.272240000000000038e-01 -4.810719999999999996e-01 4.866251000000000104e+00 -2.051429999999999920e-01 1.594467999999999996e+00 -2.828399999999999803e-01 -5.744569999999999954e-01 5.674860000000000460e-01 -1.094386000000000081e+00 1.311571999999999960e+00 -6.545431999999999917e+00 -2.057567999999999842e+00 1.655043000000000042e+00 1.350522999999999918e+00 -7.699850000000000305e-01 1.042008000000000045e+00 -1.916102999999999890e+00 -9.714999999999999677e-03 9.898109999999999964e-01 -6.409169999999999590e-01 1.734580000000000011e+00 -4.222330000000000250e-01 -6.370569999999999844e-01 -2.635020000000000140e-01 -2.311941000000000024e+00 -2.657547999999999799e+00 1.199413000000000062e+00 4.889470000000000205e-01 1.575082000000000093e+00 -3.608026000000000177e+00 6.696320000000000050e-01 1.288734000000000046e+00 1.988704000000000027e+00 -4.646100000000000230e-02 -1.057812999999999892e+00 -4.113749999999999907e-01 -3.922531999999999908e+00 4.130960000000000187e-01 -2.592645999999999784e+00 2.333199999999999857e-02 5.010320000000000329e-01 -2.619851000000000152e+00 -4.868477999999999639e+00 3.020874000000000059e+00 2.059625000000000039e+00 -1.224515999999999938e+00 -1.677788000000000057e+00 -1.670226999999999906e+00 -3.195660000000000167e-01 2.839229000000000003e+00 1.906487999999999960e+00 -6.695039999999999880e-01 -3.224139000000000088e+00 3.852421000000000095e+00 5.937810000000000032e-01 -2.215701999999999838e+00 -3.948740000000000028e-01 6.029999999999999805e-01 -1.751962999999999937e+00 9.380570000000000297e-01 -8.191549999999999665e-01 -1.409926000000000013e+00 -2.337924000000000113e+00 7.007329999999999615e+00 3.480190000000000228e-01 -1.832832999999999934e+00 4.021069999999999922e-01 -3.935460000000000069e-01 -1.328271999999999897e+00 -1.064910999999999941e+00 1.130705999999999989e+00 -1.762348000000000026e+00 -9.159190000000000387e-01 -1.989009000000000027e+00 2.432539999999999980e-01 1.289870000000000072e+00 -1.750567999999999902e+00 4.283969999999999723e-01 -6.841310000000000446e-01 1.676058999999999966e+00 1.176082000000000072e+00 -2.625634999999999941e+00 -1.130970999999999949e+00 -4.807739999999999791e-01 -1.455462999999999951e+00 4.069423999999999708e+00 5.840469999999999828e-01 1.766925000000000079e+00 8.261969999999999592e-01 1.020324999999999926e+00 2.546069000000000138e+00 -8.777810000000000334e-01 -4.045549999999999979e-01 -8.940879999999999939e-01 9.129749999999999810e-01 -8.460499999999999965e-02 8.742370000000000418e-01 -6.689619999999999456e-01 -7.496760000000000090e-01 -2.435022000000000020e+00 -2.628429999999999822e+00 -1.219252000000000002e+00 5.376490000000000435e-01 -1.413504000000000094e+00 1.544172000000000100e+00 1.427661999999999987e+00 -6.912329999999999863e-01 3.487007999999999885e+00 -4.608490000000000086e-01 -1.752359999999999918e+00 2.630230000000000068e+00 7.438040000000000207e-01 -8.900949999999999696e-01 1.749929000000000068e+00 9.473510000000000542e-01 1.652308000000000110e+00 -1.221595999999999904e+00 3.505770000000000275e-01 -1.309542999999999902e+00 3.486820999999999948e+00 1.414649000000000045e+00 3.240483999999999920e+00 1.283101000000000047e+00 8.137919999999999598e-01 2.601913999999999838e+00 -2.305159000000000180e+00
1.798939000000000066e+00 8.687400000000000677e-02 -1.834514999999999896e+00 -3.305877000000000177e+00 9.245010000000000172e-01 -2.008375000000000021e+00 7.522510000000000030e-01 -1.153248999999999969e+00 -1.151677000000000062e+00 -3.095910000000000051e-01 1.266334000000000071e+00 -2.679977000000000054e+00 -1.086956000000000033e+00 -6.513010000000000188e-01 -1.077409999999999979e+00 -2.061728000000000005e+00 1.512764999999999915e+00 -3.091774000000000022e+00 2.459798000000000151e+00 -2.758306999999999842e+00 2.326137999999999817e+00 2.703536999999999857e+00 1.408520000000000050e-01 3.047250000000000236e-01 -2.116064999999999863e+00 -2.165589000000000208e+00 -3.324216999999999977e+00 3.060749999999999860e-01 -1.544202999999999992e+00 -2.888979999999999881e-01 -2.113484000000000140e+00 2.463500000000000134e-01 -2.012021999999999977e+00 -5.907864000000000004e+00 -5.219848999999999961e+00 -8.508139999999999592e-01 -4.061177999999999955e+00 7.391159999999999952e-01 -3.148639999999999772e-01 4.473599999999999799e-01 -4.058669999999999778e-01 9.435249999999999471e-01 1.530310000000000004e-01 2.689915000000000056e+00 -3.021612000000000187e+00 3.071578999999999837e+00 1.103315999999999963e+00 2.442301000000000055e+00 -2.209423000000000137e+00 4.902770000000000294e+00 -1.106205000000000105e+00 -1.049203000000000108e+00 5.704678999999999611e+00 -3.164250000000000118e-01 -3.160083000000000197e+00 6.034770000000000412e-01 -3.065410000000000079e-01 -3.932525000000000048e+00 -3.914409999999999834e-01 5.774179999999999868e-01 -2.831602999999999870e+00 4.910969999999999835e+00 2.205789999999999973e-01 -2.783996999999999833e+00 -5.266100000000000225e-01 3.315990000000000215e+00 6.428645999999999638e+00 8.775979999999999892e-01 -2.977939999999999809e+00 1.121045000000000069e+00 -3.346580000000000110e-01 2.085805000000000131e+00 -1.454102000000000006e+00 -1.540470000000000006e+00 -8.447620000000000129e-01 8.006539999999999768e-01 1.823539999999999883e-01 -4.083390000000000075e-01 3.171100000000000307e-02 1.557850000000000068e-01 3.101163999999999810e+00 1.665135000000000032e+00 1.327579999999999871e-01 -7.026000000000000127e-03 2.190758999999999901e+00 3.100804000000000116e+00 5.538657999999999859e+00 2.035959999999999992e-01 -3.224655999999999967e+00 -5.128415000000000390e+00 -4.564986000000000210e+00 -3.517723999999999851e+00 3.942899999999999877e-02 -2.319500000000000117e+00 3.434502000000000166e+00 9.894690000000000429e-01 -9.896490000000000009e-01 -1.348333999999999921e+00 2.014075000000000060e+00 -1.980300000000000116e-01 2.558438999999999908e+00 -7.974419999999999842e-01 8.329290000000000305e-01 -8.858399999999999608e-02 1.127698000000000089e+00 1.653510000000000035e+00 5.221249999999999503e-01 8.235240000000000338e-01 -2.597698999999999980e+00 -3.040340000000000042e+00 1.952633999999999981e+00 -1.100019999999999998e+00 -5.456170000000000186e-01 9.547200000000000131e-02 -1.858950000000000047e-01 -1.770755999999999997e+00 -6.766550000000000065e-01 2.134634000000000142e+00 2.772930999999999813e+00 1.160377999999999910e+00 1.755668999999999924e+00 -1.198290000000000077e+00 3.302296999999999816e+00 1.719867999999999952e+00 1.423041999999999918e+00 3.657329999999999748e-01 1.785130000000000106e+00 2.656204999999999927e+00 3.364646000000000026e+00 -1.608734000000000108e+00 3.447362000000000037e+00 -4.280737000000000236e+00 -7.963719999999999688e-01 1.132309999999999983e-01 1.212889000000000106e+00 3.882105999999999835e+00 4.987650000000000139e-01 -2.397504000000000079e+00 -1.010370000000000018e-01 1.926673000000000080e+00 -8.251420000000000421e-01 -5.559299999999999659e-02 9.602669999999999817e-01 1.121026000000000078e+00 -2.389949999999999797e+00 -2.335725000000000051e+00 -1.682089999999999974e-01 2.095829999999999915e-01 -1.287825999999999915e+00 1.118646999999999947e+00 -2.491019000000000094e+00 -3.096686000000000050e+00 9.801330000000000320e-01 3.824644000000000155e+00 9.741199999999999859e-01 3.037561999999999873e+00 -2.259262999999999799e+00 -1.995830000000000104e-01 -1.371070999999999929e+00 -2.822990000000000221e-01 -2.445139000000000173e+00 -2.934222999999999804e+00 -1.189113000000000087e+00 -5.489060000000000050e-01 -5.554649999999999865e-01 -1.128465999999999969e+00 6.876060000000000505e-01 -3.608919999999999906e-01 2.284387000000000167e+00 2.382689000000000057e+00 2.078485000000000138e+00 1.705359999999999931e-01 -1.381507999999999958e+00 -9.723819999999999686e-01 5.388330000000000064e-01 -3.216620000000000035e-01 3.522580000000000156e-01 -2.951099999999999904e-02 1.927688999999999986e+00 -7.811310000000000198e-01 2.568401000000000156e+00 1.456220000000000014e-01 -1.945440999999999976e+00 9.503399999999999626e-01 -3.391585000000000072e+00 5.212680999999999898e+00 -1.950464999999999893e+00 -3.850900000000000212e+00 -5.476647999999999961e+00 1.258467000000000002e+00 5.944699999999999984e-02 1.576956999999999942e+00 6.424009999999999998e-01 -1.310208000000000039e+00 -1.728599999999999928e-02 -1.091120000000000090e+00 5.640199999999999658e-01 -1.540320000000000022e-01 -1.479211000000000054e+00 8.894100000000000616e-02 -4.548260000000000081e-01 -2.408980000000000010e-01 9.476400000000000379e-01 2.032954000000000150e+00 1.287439999999999918e+00 1.065538000000000096e+00 -7.168219999999999592e-01 1.539231999999999934e+00 -9.434019999999999628e-01 1.267918000000000101e+00 7.969870000000000010e-01 -1.492836999999999970e+00 5.748379999999999601e-01 3.098374000000000184e+00 -9.474339999999999984e-01 -3.547438000000000091e+00 -4.780610000000000137e-01 -1.618436999999999903e+00 2.474085999999999785e+00 2.558111999999999941e+00 -1.314521000000000051e+00 1.070721999999999952e+00 -2.133267000000000024e+00 8.697249999999999703e-01 -7.437820000000000542e-01 9.788229999999999986e-01 -3.252709999999999768e-01 -1.404299999999999993e-02 -5.116833999999999882e+00 -2.368621000000000087e+00 1.472104000000000079e+00 -8.178830000000000267e-01 -4.999489999999999768e-01 -1.700944999999999929e+00 1.174040999999999890e+00 1.377960999999999991e+00 5.722850000000000437e-01 -2.656932999999999989e+00 -4.870309999999999917e-01 3.829682000000000031e+00 4.053320000000000256e-01 -2.115047999999999817e+00 -1.725402000000000102e+00 -6.090210000000000345e-01 -4.253870000000000151e-01 -2.596760000000000179e-01 1.265346000000000082e+00 -2.072660000000000058e-01 -3.108219999999999872e-01 -1.661705999999999905e+00 2.014488000000000056e+00 1.866814999999999891e+00 2.580210000000000004e-01 2.208430000000000115e-01 1.107380000000000031e-01 6.511219999999999786e-01 1.433678999999999926e+00 5.007770000000000277e-01 2.210300000000000153e+00 1.836560000000000137e-01 6.571040000000000214e-01 2.588770999999999933e+00 -5.034750000000000059e-01 -1.745168000000000053e+00 2.779608000000000079e+00 -1.529878000000000071e+00 -2.318721000000000032e+00 2.508002999999999982e+00 1.059671999999999947e+00 1.711052000000000017e+00 -9.506069999999999798e-01 6.927830000000000377e-01 -2.042575999999999947e+00 3.887341000000000157e+00 -1.505605000000000082e+00 3.553814000000000028e+00 -1.115564999999999918e+00 -1.660527000000000086e+00 -1.049541000000000057e+00 6.097400000000000042e-02 -1.438939999999999941e-01 1.655939999999999912e-01 4.579003000000000156e+00 3.393278000000000016e+00 -1.546950000000000047e+00
-1.694217000000000084e+00 1.221003000000000061e+00 3.642859999999999987e-01 -8.835190000000000543e-01 1.800432000000000032e+00 2.978245999999999949e+00 9.700400000000000134e-01 -7.746960000000000512e-01 -5.947750000000000536e-01 1.666212999999999944e+00 -3.058098999999999901e+00 -1.687764000000000042e+00 -2.557879999999999932e+00 -2.259579999999999922e-01 -2.074599000000000082e+00 -2.971979000000000148e+00 5.178406999999999982e+00 1.089770000000000044e-01 -2.193760999999999850e+00 1.674498999999999960e+00 -5.353080000000000060e-01 -2.364000000000000216e-03 -1.998634999999999939e+00 1.919704000000000077e+00 -1.626784000000000008e+00 -9.553559999999999830e-01 7.346949999999999870e-01 -2.592430999999999930e+00 -3.701200000000000045e-01 -2.195250000000000146e+00 -3.039121000000000183e+00 3.512780999999999931e+00 2.516852999999999785e+00 3.063594000000000150e+00 3.615369999999999973e-01 2.723797999999999941e+00 1.021910000000000041e-01 -5.637999999999999678e-01 -1.320521999999999974e+00 3.142561000000000160e+00 2.113260000000000138e-01 4.682910000000000128e-01 3.819659999999999833e+00 4.312006000000000228e+00 -2.272584999999999855e+00 5.504265000000000185e+00 -1.534167000000000058e+00 -1.052548999999999957e+00 3.322045000000000137e+00 1.170052000000000092e+00 -2.792682999999999804e+00 4.966079999999999939e-01 8.340799999999999603e-02 -4.121929999999999761e-01 -2.821302999999999894e+00 -4.324043999999999777e+00 -3.589911999999999992e+00 -1.887046999999999919e+00 -2.858028000000000013e+00 -9.694930000000000492e-01 2.106014000000000053e+00 4.390017000000000280e+00 3.676943000000000072e+00 1.761867000000000072e+00 -2.100216999999999778e+00 -6.957550000000000123e-01 4.481832999999999956e+00 2.155155000000000154e+00 7.371700000000000474e-02 4.241997999999999713e+00 2.732965000000000089e+00 3.262728000000000073e+00 -4.109630000000000227e-01 -1.573258999999999963e+00 -1.780049999999999910e+00 9.138899999999999801e-02 -8.952020000000000532e-01 -6.571160000000000334e-01 -3.708832999999999824e+00 -1.434908000000000072e+00 -1.727784999999999904e+00 -2.341000000000000025e-01 1.230659999999999948e-01 -2.574690000000000034e-01 -2.702157999999999838e+00 1.750296000000000074e+00 3.480400000000000160e-02 -1.470980000000000065e-01 -2.402439999999999909e+00 -1.789164999999999894e+00 1.745306999999999942e+00 7.019290000000000251e-01 2.712810999999999861e+00 -8.684340000000000392e-01 8.790820000000000300e-01 -2.402229999999999865e+00 -2.731971000000000149e+00 1.650840000000000085e+00 -2.621234999999999982e+00 1.878233999999999959e+00 -4.881269999999999776e-01 1.167013000000000078e+00 1.297063000000000077e+00 -1.611990000000000089e-01 -1.075167999999999902e+00 -1.671893000000000074e+00 7.018489999999999451e-01 3.373575000000000212e+00 7.007269999999999888e-01 2.444710000000000161e+00 1.813819999999999988e+00 -3.521204000000000001e+00 -4.205561000000000327e+00 -1.674317999999999973e+00 -3.370119999999999783e-01 -6.923070000000000057e-01 4.367480000000000251e-01 -1.995979999999999976e-01 9.441169999999999840e-01 2.680226999999999915e+00 1.529573000000000071e+00 2.165347999999999828e+00 1.642841999999999913e+00 -1.024788999999999950e+00 -1.266502000000000017e+00 -1.221360999999999919e+00 -2.219265000000000043e+00 1.012799999999999923e+00 2.816807999999999979e+00 -9.768470000000000208e-01 5.259570000000000078e-01 6.427589999999999693e-01 -2.788459999999999828e-01 1.352750000000000064e-01 7.712639999999999496e-01 -1.890497000000000094e+00 1.191542000000000101e+00 -9.930999999999999828e-01 -7.800150000000000139e-01 2.240581999999999852e+00 1.448615999999999904e+00 -4.553249999999999797e-01 2.904703000000000035e+00 -1.150169999999999942e-01 -1.084403000000000006e+00 -3.450679999999999858e-01 1.296753999999999962e+00 -5.542660000000000364e-01 -6.702080000000000259e-01 -1.552615999999999996e+00 7.604610000000000536e-01 -2.109010000000000051e+00 -1.817922000000000038e+00 1.960056999999999938e+00 4.114160000000000039e-01 -8.768939999999999513e-01 -6.801570000000000116e-01 9.480779999999999763e-01 1.103230000000000044e-01 1.916311000000000098e+00 -1.104851999999999945e+00 -5.841290000000000093e-01 2.120130000000000070e-01 -2.364680000000000115e-01 1.447249999999999925e-01 -3.727250999999999870e+00 5.020336999999999605e+00 1.571487999999999996e+00 1.478407000000000027e+00 -5.021330000000000515e-01 -2.591733000000000064e+00 -2.932000000000000144e-03 -6.187890000000000335e-01 -1.768440000000000012e-01 2.920367000000000157e+00 -1.621343999999999896e+00 5.244440000000000213e-01 -1.647002000000000077e+00 -5.305830000000000268e-01 1.920010000000000050e-01 1.921405999999999947e+00 1.010113000000000039e+00 1.494840000000000058e-01 5.302400000000000446e-01 -1.721503999999999923e+00 -1.188642999999999894e+00 3.541290000000000271e-01 1.654140000000000055e-01 -5.264489999999999448e-01 9.731490000000000418e-01 2.295818999999999832e+00 -2.861489000000000171e+00 3.476580999999999921e+00 -1.212604999999999933e+00 -1.007095000000000073e+00 1.717641999999999891e+00 -2.133329999999999949e-01 6.403693999999999775e+00 -1.915449999999999930e-01 -1.959948999999999941e+00 4.806259999999999977e-01 -9.052329999999999544e-01 -7.167550000000000310e-01 -6.085530000000000106e-01 1.414449000000000067e+00 -1.913791999999999938e+00 1.344662999999999942e+00 -2.177604999999999791e+00 -1.807960000000000012e+00 -1.039061000000000012e+00 -1.258828000000000058e+00 -2.144362000000000101e+00 -3.877730000000000121e+00 2.643349999999999866e+00 -2.203730999999999884e+00 4.085204000000000057e+00 -1.465789000000000009e+00 -2.666708999999999996e+00 -1.004872999999999905e+00 -2.589500999999999831e+00 1.093056999999999945e+00 1.943538999999999906e+00 2.533104999999999940e+00 -2.844039999999999901e-01 1.359887000000000068e+00 -1.341552000000000078e+00 -4.648479999999999834e-01 -1.690652999999999961e+00 1.549546000000000090e+00 -1.063039999999999957e-01 2.884654999999999969e+00 8.067900000000000071e-02 6.794249999999999456e-01 6.223100000000000159e-02 6.469120000000000426e-01 -1.087410000000000043e-01 -1.473168000000000033e+00 -1.132439999999999891e+00 3.044308000000000014e+00 -7.798289999999999944e-01 1.056314999999999893e+00 -4.734970000000000012e-01 -2.349305999999999894e+00 -4.648300000000000209e-01 1.221460000000000046e-01 6.555100000000000371e-01 7.065829999999999611e-01 7.522499999999999742e-01 -1.815696999999999894e+00 1.231030999999999986e+00 -9.476419999999999844e-01 1.765160999999999980e+00 -1.135169000000000095e+00 -2.402902000000000093e+00 1.646239999999999926e+00 -1.801104999999999956e+00 2.001891999999999783e+00 1.176776000000000044e+00 -2.953359999999999874e-01 -3.453400000000000220e-02 -9.160829999999999806e-01 -2.054472000000000076e+00 -1.455705999999999944e+00 2.581256000000000217e+00 -4.738959999999999839e-01 -2.201154999999999973e+00 -5.094403999999999932e+00 -8.322129999999999805e-01 -1.673821000000000003e+00 7.226569999999999938e-01 -1.696787999999999963e+00 3.275581999999999994e+00 -1.997921000000000058e+00 -3.104669999999999930e-01 -1.022955000000000059e+00 -1.297700000000000069e-02 1.206857999999999986e+00 1.542342000000000102e+00 -1.259919999999999929e-01 2.945630000000000193e-01 -3.812038999999999955e+00 9.047800000000000287e-01 7.467019999999999769e-01 6.324680000000000302e-01 2.101834000000000202e+00
-4.203897000000000439e+00 4.000454000000000399e+00 1.850260999999999934e+00 -1.250807000000000002e+00 -2.135177000000000103e+00 -1.333582999999999963e+00 -3.563082999999999778e+00 5.220439999999999525e-01 -3.586008000000000084e+00 8.652879999999999461e-01 -4.659179999999999988e-01 -2.908580000000000054e-01 5.091090000000000337e-01 -1.927167000000000074e+00 1.516088000000000102e+00 4.496419999999999861e-01 -7.223200000000000454e-02 -2.985019999999999896e-01 2.990979999999999750e-01 2.484757000000000104e+00 -4.430077999999999960e+00 1.612232000000000109e+00 4.128497000000000305e+00 1.636978000000000044e+00 -1.202258000000000049e+00 2.913539999999999797e+00 -9.829069999999999752e-01 -6.892099999999999616e-02 1.619623999999999953e+00 -1.626890000000000003e-01 2.499019000000000101e+00 -6.081830000000000291e-01 9.281799999999999773e-02 2.435233000000000203e+00 -1.611423000000000050e+00 -1.240350000000000064e-01 8.955210000000000115e-01 1.507339999999999902e+00 1.337817999999999952e+00 4.795776000000000039e+00 2.805018000000000011e+00 2.393022000000000205e+00 -3.505130000000000190e-01 -5.205910000000000259e-01 -1.631685999999999970e+00 4.269065999999999583e+00 2.055994000000000099e+00 -3.786990000000000078e-01 2.903310000000000057e-01 -3.435121999999999787e+00 1.411079999999999890e+00 -1.767468000000000039e+00 -1.070737999999999968e+00 -1.931959999999999900e+00 3.519932999999999979e+00 5.119258000000000308e+00 9.682730000000000503e-01 9.455080000000000151e-01 -1.743659999999999988e+00 6.717589999999999950e-01 1.702941000000000038e+00 1.115158000000000094e+00 1.696112000000000064e+00 7.403250000000000108e-01 6.069835000000000313e+00 -1.781921000000000088e+00 1.936790999999999929e+00 -1.689569000000000099e+00 -3.269025000000000070e+00 -4.868248999999999604e+00 -1.714220000000000077e+00 3.057670000000000110e-01 -5.170640999999999821e+00 9.540640000000000231e-01 7.551889999999999992e-01 -1.928587000000000051e+00 2.431728999999999807e+00 -6.591489999999999849e-01 -2.353476000000000123e+00 2.299660999999999955e+00 -1.179284999999999917e+00 -1.477279999999999982e-01 1.672894000000000103e+00 1.244574999999999987e+00 4.040119999999999822e-01 4.072422000000000430e+00 -8.235860000000000403e-01 -1.243025999999999964e+00 1.409486999999999934e+00 6.485247000000000206e+00 1.355220000000000091e+00 -3.481866000000000128e+00 1.351960999999999968e+00 -2.686735000000000095e+00 -6.107270000000000199e-01 -1.206233000000000111e+00 -4.579170000000000185e-01 1.728539999999999965e+00 1.209108000000000072e+00 7.783970000000000056e-01 2.129754999999999843e+00 -2.606322000000000028e+00 -9.729419999999999735e-01 -5.313809999999999922e-01 2.013500000000000012e-01 2.057167000000000190e+00 -1.106055000000000010e+00 1.465854999999999908e+00 1.437596000000000096e+00 -1.518480000000000052e+00 -7.769399999999999917e-02 1.239182999999999923e+00 -2.018600000000000116e-01 -1.026874000000000065e+00 2.710933999999999955e+00 -1.687700000000000033e-01 2.790487999999999857e+00 -6.822960000000000136e-01 -2.847919999999999896e-01 -3.215215000000000156e+00 -1.174666999999999906e+00 -4.075561000000000433e+00 7.474709999999999965e-01 -6.703590000000000382e-01 2.839561999999999919e+00 1.691305999999999976e+00 -4.705770000000000231e-01 -9.996429999999999483e-01 -6.918809999999999683e-01 2.361381000000000174e+00 1.586249000000000020e+00 1.032143000000000033e+00 2.189679999999999960e-01 6.106999999999999582e-03 -2.520512000000000086e+00 1.674903000000000031e+00 -1.796802999999999928e+00 3.194602000000000164e+00 8.327069999999999750e-01 -3.773380000000000067e-01 1.077253999999999934e+00 -1.094889000000000001e+00 -2.798379000000000172e+00 -9.001719999999999722e-01 1.781527000000000083e+00 3.131400000000000156e-02 1.635015000000000107e+00 1.584839000000000109e+00 -1.450236000000000081e+00 -1.560851999999999906e+00 -8.929610000000000047e-01 -2.046939999999999871e-01 -1.839979000000000031e+00 -1.233281000000000072e+00 4.885140000000000038e-01 -4.531859999999999777e-01 -7.079720000000000457e-01 -2.584528000000000159e+00 -8.280790000000000095e-01 1.866869999999999918e-01 -2.494787999999999784e+00 2.020204000000000111e+00 -2.164874000000000187e+00 3.847049999999999859e+00 2.102603000000000222e+00 5.797689999999999788e-01 4.438869999999999760e-01 -2.833579999999999988e-01 1.636209000000000024e+00 3.589376999999999818e+00 7.555479999999999974e-01 3.513411000000000062e+00 4.368009999999999948e-01 7.856220000000000425e-01 -3.227709999999999746e-01 5.667109999999999648e-01 -7.794159999999999977e-01 2.326815999999999995e+00 1.240174000000000110e+00 6.277270000000000350e-01 -1.053820000000000034e-01 -3.933849999999999847e-01 -8.686519999999999797e-01 3.026280000000000081e-01 -1.037037999999999904e+00 6.447690000000000365e-01 -2.159619999999999873e+00 -7.587700000000000000e-02 -7.281330000000000302e-01 3.862665999999999933e+00 1.637906000000000084e+00 -5.819900000000000073e-01 3.026800000000000046e-01 1.935149999999999926e-01 -1.035161999999999916e+00 -2.736069999999999891e-01 4.987219999999999986e-01 -3.111136000000000124e+00 2.255070000000000130e-01 -1.931329000000000073e+00 1.493314000000000030e+00 -1.526693999999999996e+00 -8.540699999999999958e-01 6.749960000000000404e-01 -2.814646999999999899e+00 -3.950629999999999975e-01 -1.563371999999999984e+00 1.964319999999999955e-01 2.922359999999999958e-01 -2.224685000000000024e+00 2.280132000000000048e+00 -1.170272999999999897e+00 1.211800000000000030e-02 -3.713850000000000207e-01 -7.511090000000000266e-01 -6.818290000000000184e-01 -2.038143999999999956e+00 1.231610000000000066e-01 9.521359999999999824e-01 1.130922999999999901e+00 -2.709372999999999809e+00 -7.589719999999999800e-01 -1.122845000000000093e+00 -1.593328999999999995e+00 2.245773999999999937e+00 -8.474599999999999911e-01 -1.585690000000000044e+00 -7.567249999999999810e-01 2.908958999999999850e+00 -2.248152000000000150e+00 1.370732000000000061e+00 -3.745737000000000094e+00 2.522908000000000150e+00 1.827342999999999940e+00 -2.401758000000000060e+00 -3.460777999999999910e+00 -1.751252999999999949e+00 -5.601690000000000280e-01 6.590819999999999457e-01 -2.017859999999999931e-01 1.037965999999999944e+00 1.319277000000000033e+00 5.063900000000000345e-02 -6.394739999999999869e-01 -9.970729999999999871e-01 -1.806770000000000043e-01 1.359159999999999924e+00 -2.154943999999999971e+00 -8.818190000000000195e-01 -3.828949999999999854e-01 1.867759999999999976e-01 -1.978358000000000061e+00 -5.050633999999999624e+00 -1.542375000000000052e+00 2.071308999999999845e+00 3.730496000000000034e+00 -3.383059999999999956e+00 -1.386949999999999905e+00 1.116850000000000065e-01 5.108749999999999680e-01 2.264231000000000105e+00 2.871599999999999847e-02 1.802181999999999951e+00 2.430994000000000099e+00 5.930149999999999588e-01 1.009665000000000035e+00 8.031279999999999530e-01 -1.668786000000000103e+00 -2.864680000000000004e-01 9.575960000000000027e-01 -4.589865999999999779e+00 -2.130908999999999942e+00 -2.677392000000000216e+00 4.629234000000000293e+00 -4.272110999999999770e+00 -4.150038000000000338e+00 -2.612185999999999897e+00 -2.029279999999999973e-01 1.316305000000000058e+00 -2.136150000000000215e+00 -7.299309999999999965e-01 1.015339999999999993e-01 -4.474060000000000259e-01 -1.286947999999999981e+00 2.102514999999999912e+00