1.017868893400000019e+01 0.000000000000000000e+00 0.000000000000000000e+00 -2.631165099999999840e-02 1.021023513599999966e+01 0.000000000000000000e+00 -2.706622900000000068e-02 1.786104200000000058e-02 1.061926295299999978e+01
1.010784722200000019e+01 0.000000000000000000e+00 0.000000000000000000e+00 -2.612852699999999861e-02 1.013917386900000039e+01 0.000000000000000000e+00 -2.687785300000000016e-02 1.773673300000000105e-02 1.054535493100000032e+01
1.010333017600000005e+01 0.000000000000000000e+00 0.000000000000000000e+00 -2.611685099999999995e-02 1.013464282400000016e+01 0.000000000000000000e+00 -2.686584200000000089e-02 1.772880599999999973e-02 1.054064236900000040e+01
1.015020895600000017e+01 0.000000000000000000e+00 0.000000000000000000e+00 -2.623803099999999847e-02 1.018166689200000086e+01 0.000000000000000000e+00 -2.699049800000000165e-02 1.781106699999999987e-02 1.058955024800000011e+01
1.019582103499999981e+01 0.000000000000000000e+00 0.000000000000000000e+00 -2.635593699999999942e-02 1.022742033399999961e+01 0.000000000000000000e+00 -2.711178499999999936e-02 1.789110500000000090e-02 1.063713659899999975e+01
1.017195461500000064e+01 0.000000000000000000e+00 0.000000000000000000e+00 -2.629423300000000019e-02 1.020347999300000019e+01 0.000000000000000000e+00 -2.704834399999999847e-02 1.784919999999999909e-02 1.061223725099999982e+01
1.001659411700000035e+01 0.000000000000000000e+00 0.000000000000000000e+00 -2.589264000000000149e-02 1.004763794900000029e+01 0.000000000000000000e+00 -2.663520200000000018e-02 1.757660600000000156e-02 1.045015202999999993e+01
1.011725170999999968e+01 0.000000000000000000e+00 0.000000000000000000e+00 2.374505099999999966e-02 1.018420581200000008e+01 0.000000000000000000e+00 -5.189092000000000184e-03 4.354330499999999743e-02 1.054937298599999984e+01
1.015286651999999989e+01 0.000000000000000000e+00 0.000000000000000000e+00 -2.624490100000000103e-02 1.018433269299999999e+01 0.000000000000000000e+00 -2.699756500000000115e-02 1.781572999999999837e-02 1.059232284299999982e+01
1.014923424300000043e+01 0.000000000000000000e+00 0.000000000000000000e+00 -2.623550100000000135e-02 1.018068920500000019e+01 0.000000000000000000e+00 -2.698792800000000131e-02 1.780933100000000116e-02 1.058853345099999999e+01
1.009834260599999922e+01 0.000000000000000000e+00 0.000000000000000000e+00 -2.610395800000000002e-02 1.012963979599999931e+01 0.000000000000000000e+00 -2.685258000000000089e-02 1.772005399999999897e-02 1.053543891700000046e+01
1.018241264699999959e+01 0.000000000000000000e+00 0.000000000000000000e+00 -2.632127700000000056e-02 1.021397039100000015e+01 0.000000000000000000e+00 -2.707613099999999981e-02 1.786757599999999960e-02 1.062314784400000001e+01
1.014957380499999928e+01 0.000000000000000000e+00 0.000000000000000000e+00 -2.623637900000000064e-02 1.018102981999999912e+01 0.000000000000000000e+00 -2.698883100000000132e-02 1.780992699999999970e-02 1.058888770999999984e+01
1.014232696600000061e+01 0.000000000000000000e+00 0.000000000000000000e+00 2.380390199999999831e-02 1.020944700999999988e+01 0.000000000000000000e+00 -5.201952999999999612e-03 4.365122500000000183e-02 1.057551923900000013e+01
1.014079432399999980e+01 0.000000000000000000e+00 0.000000000000000000e+00 2.380030500000000077e-02 1.020790422600000014e+01 0.000000000000000000e+00 -5.201166999999999596e-03 4.364462899999999729e-02 1.057392113599999917e+01
1.012099363099999927e+01 0.000000000000000000e+00 0.000000000000000000e+00 2.375383299999999850e-02 1.018797249600000043e+01 0.000000000000000000e+00 -5.191010999999999716e-03 4.355940900000000032e-02 1.055327473000000005e+01
1.016562472400000061e+01 0.000000000000000000e+00 0.000000000000000000e+00 -2.627788099999999946e-02 1.019713043800000030e+01 0.000000000000000000e+00 -2.703148999999999830e-02 1.783811800000000003e-02 1.060563327200000039e+01
1.012310910000000064e+01 0.000000000000000000e+00 0.000000000000000000e+00 -2.616796799999999978e-02 1.015448309499999979e+01 0.000000000000000000e+00 -2.691845799999999927e-02 1.776348800000000089e-02 1.056127750799999987e+01
1.006067299200000065e+01 0.000000000000000000e+00 0.000000000000000000e+00 2.361226199999999845e-02 1.012725266600000040e+01 0.000000000000000000e+00 -5.160073000000000264e-03 4.329979700000000098e-02 1.049037771499999927e+01
1.003522798700000074e+01 0.000000000000000000e+00 0.000000000000000000e+00 2.355254199999999923e-02 1.010163927099999981e+01 0.000000000000000000e+00 -5.147022000000000229e-03 4.319028500000000187e-02 1.046384592100000077e+01
1.017815102600000010e+01 0.000000000000000000e+00 0.000000000000000000e+00 2.388798099999999910e-02 1.024550814800000076e+01 0.000000000000000000e+00 -5.220327000000000300e-03 4.380540699999999760e-02 1.061287339299999921e+01
1.003118105599999943e+01 0.000000000000000000e+00 0.000000000000000000e+00 2.354304399999999908e-02 1.009756555799999944e+01 0.000000000000000000e+00 -5.144947000000000409e-03 4.317286800000000313e-02 1.045962613999999924e+01
1.003635555199999985e+01 0.000000000000000000e+00 0.000000000000000000e+00 -2.594371300000000019e-02 1.006746067599999961e+01 0.000000000000000000e+00 -2.668777099999999902e-02 1.761125800000000116e-02 1.047076892099999945e+01
1.016256398900000057e+01 0.000000000000000000e+00 0.000000000000000000e+00 2.385139799999999935e-02 1.022981795900000002e+01 0.000000000000000000e+00 -5.212332000000000076e-03 4.373832300000000256e-02 1.059662061300000069e+01
1.011274774399999998e+01 0.000000000000000000e+00 0.000000000000000000e+00 -2.614119499999999902e-02 1.014408957899999919e+01 0.000000000000000000e+00 -2.689088400000000031e-02 1.774533199999999908e-02 1.055046756700000010e+01
1.018610177799999938e+01 0.000000000000000000e+00 0.000000000000000000e+00 -2.633081300000000152e-02 1.021767095500000089e+01 0.000000000000000000e+00 -2.708594099999999880e-02 1.787404999999999897e-02 1.062699665399999915e+01
1.009530833700000052e+01 0.000000000000000000e+00 0.000000000000000000e+00 -2.609610399999999844e-02 1.012659616999999912e+01 0.000000000000000000e+00 -2.684453300000000028e-02 1.771470500000000073e-02 1.053227341700000075e+01
1.014160347400000006e+01 0.000000000000000000e+00 0.000000000000000000e+00 2.380220400000000042e-02 1.020871873099999938e+01 0.000000000000000000e+00 -5.201581999999999734e-03 4.364811100000000332e-02 1.057476484600000077e+01
1.017624367099999994e+01 0.000000000000000000e+00 0.000000000000000000e+00 -2.630532000000000009e-02 1.020778234199999979e+01 0.000000000000000000e+00 -2.705974900000000100e-02 1.785672599999999985e-02 1.061671195399999945e+01
1.018756432200000006e+01 0.000000000000000000e+00 0.000000000000000000e+00 -2.633458400000000116e-02 1.021913807900000037e+01 0.000000000000000000e+00 -2.708985200000000107e-02 1.787659100000000070e-02 1.062852260800000082e+01
1.019286481299999991e+01 0.000000000000000000e+00 0.000000000000000000e+00 -2.634829500000000074e-02 1.022445495000000015e+01 0.000000000000000000e+00 -2.710392400000000146e-02 1.788591700000000118e-02 1.063405241999999973e+01
1.016629681400000074e+01 0.000000000000000000e+00 0.000000000000000000e+00 -2.627960799999999944e-02 1.019780465800000080e+01 0.000000000000000000e+00 -2.703329900000000022e-02 1.783927199999999977e-02 1.060633455800000036e+01
1.019222506600000067e+01 0.000000000000000000e+00 0.000000000000000000e+00 2.392101199999999844e-02 1.025967532700000007e+01 0.000000000000000000e+00 -5.227545000000000108e-03 4.386597999999999886e-02 1.062754855400000054e+01
1.013344000999999928e+01 0.000000000000000000e+00 0.000000000000000000e+00 2.378304499999999919e-02 1.020050124299999972e+01 0.000000000000000000e+00 -5.197394999999999619e-03 4.361297699999999722e-02 1.056625271000000055e+01
1.016677954999999933e+01 0.000000000000000000e+00 0.000000000000000000e+00 -2.628086599999999995e-02 1.019828884300000027e+01 0.000000000000000000e+00 -2.703456099999999862e-02 1.784014399999999875e-02 1.060683808399999961e+01
1.018945417499999984e+01 0.000000000000000000e+00 0.000000000000000000e+00 -2.633946900000000077e-02 1.022103378899999981e+01 0.000000000000000000e+00 -2.709487699999999985e-02 1.787990700000000044e-02 1.063049426199999914e+01
1.007538592200000060e+01 0.000000000000000000e+00 0.000000000000000000e+00 2.364679299999999929e-02 1.014206296300000076e+01 0.000000000000000000e+00 -5.167619000000000032e-03 4.336311999999999806e-02 1.050571905400000006e+01
1.005279867900000035e+01 0.000000000000000000e+00 0.000000000000000000e+00 -2.598621799999999843e-02 1.008395476399999957e+01 0.000000000000000000e+00 -2.673149500000000095e-02 1.764011099999999999e-02 1.048792377200000026e+01
1.015314648600000069e+01 0.000000000000000000e+00 0.000000000000000000e+00 -2.624562500000000159e-02 1.018461352699999978e+01 0.000000000000000000e+00 -2.699830900000000158e-02 1.781622100000000014e-02 1.059261492699999962e+01
1.011638779299999946e+01 0.000000000000000000e+00 0.000000000000000000e+00 2.374302299999999852e-02 1.018333617699999927e+01 0.000000000000000000e+00 -5.188649000000000039e-03 4.353958599999999818e-02 1.054847217000000015e+01
1.013125821699999918e+01 0.000000000000000000e+00 0.000000000000000000e+00 -2.618904400000000160e-02 1.016265742000000039e+01 0.000000000000000000e+00 -2.694010599999999839e-02 1.777781299999999995e-02 1.056977924599999952e+01
1.015651519699999916e+01 0.000000000000000000e+00 0.000000000000000000e+00 2.383720199999999831e-02 1.022372913699999941e+01 0.000000000000000000e+00 -5.209229999999999590e-03 4.371228900000000139e-02 1.059031346899999981e+01
1.015141201900000034e+01 0.000000000000000000e+00 0.000000000000000000e+00 2.382522499999999849e-02 1.021859218700000049e+01 0.000000000000000000e+00 -5.206612000000000219e-03 4.369032600000000155e-02 1.058499232700000015e+01
1.015938833100000060e+01 0.000000000000000000e+00 0.000000000000000000e+00 -2.626174900000000090e-02 1.019087476400000014e+01 0.000000000000000000e+00 -2.701492900000000003e-02 1.782714900000000047e-02 1.059912704799999972e+01
1.014214274499999924e+01 0.000000000000000000e+00 0.000000000000000000e+00 2.380347000000000018e-02 1.020926157000000067e+01 0.000000000000000000e+00 -5.201858000000000176e-03 4.365043200000000290e-02 1.057532714999999968e+01
1.017832063200000015e+01 0.000000000000000000e+00 0.000000000000000000e+00 -2.631069899999999989e-02 1.020986569299999935e+01 0.000000000000000000e+00 -2.706524999999999903e-02 1.786039600000000060e-02 1.061887870900000053e+01
1.014155494599999940e+01 0.000000000000000000e+00 0.000000000000000000e+00 -2.621566100000000121e-02 1.017298606099999958e+01 0.000000000000000000e+00 -2.696748599999999885e-02 1.779588099999999951e-02 1.058052165900000041e+01
1.017665020799999986e+01 0.000000000000000000e+00 0.000000000000000000e+00 2.388445900000000024e-02 1.024399739699999934e+01 0.000000000000000000e+00 -5.219556999999999669e-03 4.379894799999999727e-02 1.061130847299999935e+01
1.014640710800000001e+01 0.000000000000000000e+00 0.000000000000000000e+00 -2.622819300000000034e-02 1.017785330799999954e+01 0.000000000000000000e+00 -2.698040999999999981e-02 1.780436999999999992e-02 1.058558394599999986e+01
1.017141878400000010e+01 0.000000000000000000e+00 0.000000000000000000e+00 2.387217999999999979e-02 1.023873135300000037e+01 0.000000000000000000e+00 -5.216873999999999817e-03 4.377643199999999707e-02 1.060585360800000032e+01
