1.025968111899999968e+01 0.000000000000000000e+00 0.000000000000000000e+00 -2.652101399999999901e-02 1.029147833600000084e+01 0.000000000000000000e+00 -2.728159600000000171e-02 1.800316299999999911e-02 1.070376080099999960e+01
1.036352403899999963e+01 0.000000000000000000e+00 0.000000000000000000e+00 -2.678944499999999854e-02 1.039564309100000017e+01 0.000000000000000000e+00 -2.755772600000000114e-02 1.818538100000000046e-02 1.081209845499999922e+01
1.092927180899999939e+01 0.000000000000000000e+00 0.000000000000000000e+00 2.565085099999999882e-02 1.100159970900000062e+01 0.000000000000000000e+00 -5.605572999999999979e-03 4.703813099999999692e-02 1.139607554300000025e+01
1.040717761500000016e+01 0.000000000000000000e+00 0.000000000000000000e+00 2.442550300000000119e-02 1.047605039299999952e+01 0.000000000000000000e+00 -5.337793000000000398e-03 4.479110699999999667e-02 1.085168201199999949e+01
1.008841249800000028e+01 0.000000000000000000e+00 0.000000000000000000e+00 -2.607828900000000102e-02 1.011967891199999947e+01 0.000000000000000000e+00 -2.682617400000000124e-02 1.770263000000000045e-02 1.052507899499999944e+01
1.001400925899999983e+01 0.000000000000000000e+00 0.000000000000000000e+00 2.350274200000000008e-02 1.008028012099999948e+01 0.000000000000000000e+00 -5.136138999999999635e-03 4.309896299999999708e-02 1.044172091199999919e+01
1.035121228999999943e+01 0.000000000000000000e+00 0.000000000000000000e+00 -2.675760900000000164e-02 1.038329323099999968e+01 0.000000000000000000e+00 -2.752500899999999959e-02 1.816375199999999829e-02 1.079925390999999912e+01
1.044406775999999937e+01 0.000000000000000000e+00 0.000000000000000000e+00 2.451208399999999996e-02 1.051318466899999926e+01 0.000000000000000000e+00 -5.356714000000000267e-03 4.494987699999999919e-02 1.089014778399999983e+01
1.064256702299999979e+01 0.000000000000000000e+00 0.000000000000000000e+00 -2.751076400000000005e-02 1.067555089500000065e+01 0.000000000000000000e+00 -2.829973100000000158e-02 1.867503200000000113e-02 1.110321952500000009e+01
1.033111154200000037e+01 0.000000000000000000e+00 0.000000000000000000e+00 2.424697699999999942e-02 1.039948092799999912e+01 0.000000000000000000e+00 -5.298780000000000330e-03 4.446372900000000045e-02 1.077236705500000014e+01
1.041015966299999995e+01 0.000000000000000000e+00 0.000000000000000000e+00 -2.690999700000000147e-02 1.044242324999999916e+01 0.000000000000000000e+00 -2.768173499999999898e-02 1.826721499999999984e-02 1.086075265400000056e+01
1.029352759300000031e+01 0.000000000000000000e+00 0.000000000000000000e+00 -2.660850600000000052e-02 1.032542970799999971e+01 0.000000000000000000e+00 -2.737159700000000098e-02 1.806255500000000097e-02 1.073907228500000066e+01
1.062344665800000065e+01 0.000000000000000000e+00 0.000000000000000000e+00 -2.746133900000000128e-02 1.065637127199999945e+01 0.000000000000000000e+00 -2.824888799999999978e-02 1.864147999999999847e-02 1.108327155499999961e+01
1.031357359999999979e+01 0.000000000000000000e+00 0.000000000000000000e+00 -2.666031400000000093e-02 1.034553788999999924e+01 0.000000000000000000e+00 -2.742492399999999983e-02 1.809770499999999865e-02 1.075998606799999990e+01
1.059627748599999997e+01 0.000000000000000000e+00 0.000000000000000000e+00 -2.739109600000000019e-02 1.062911794500000084e+01 0.000000000000000000e+00 -2.817666500000000004e-02 1.859377900000000125e-02 1.105492650200000071e+01
1.036357454200000028e+01 0.000000000000000000e+00 0.000000000000000000e+00 -2.678957599999999897e-02 1.039569374999999951e+01 0.000000000000000000e+00 -2.755785999999999999e-02 1.818546999999999872e-02 1.081215114399999955e+01
1.016646920200000004e+01 0.000000000000000000e+00 0.000000000000000000e+00 -2.628006299999999934e-02 1.019797753299999954e+01 0.000000000000000000e+00 -2.703373599999999918e-02 1.783959900000000112e-02 1.060651430300000087e+01
1.026777112199999920e+01 0.000000000000000000e+00 0.000000000000000000e+00 -2.654191599999999873e-02 1.029959345900000045e+01 0.000000000000000000e+00 -2.730312999999999837e-02 1.801733399999999943e-02 1.071220107699999957e+01
1.027062468399999950e+01 0.000000000000000000e+00 0.000000000000000000e+00 2.410501500000000047e-02 1.033859377899999998e+01 0.000000000000000000e+00 -5.267756000000000174e-03 4.420340100000000327e-02 1.070929672299999957e+01
1.063255913200000080e+01 0.000000000000000000e+00 0.000000000000000000e+00 -2.748488300000000162e-02 1.066551203699999917e+01 0.000000000000000000e+00 -2.827314200000000111e-02 1.865744399999999872e-02 1.109277856199999945e+01
1.066255892999999944e+01 0.000000000000000000e+00 0.000000000000000000e+00 -2.756244299999999897e-02 1.069560476200000032e+01 0.000000000000000000e+00 -2.835289200000000107e-02 1.871011200000000096e-02 1.112407676199999962e+01
1.041021295500000043e+01 0.000000000000000000e+00 0.000000000000000000e+00 -2.691013500000000169e-02 1.044247670600000077e+01 0.000000000000000000e+00 -2.768187600000000109e-02 1.826730899999999894e-02 1.086080825099999991e+01
1.074415670299999981e+01 0.000000000000000000e+00 0.000000000000000000e+00 -2.777336000000000041e-02 1.077745547500000001e+01 0.000000000000000000e+00 -2.856989199999999951e-02 1.885326899999999889e-02 1.120920652000000040e+01
1.041453739700000014e+01 0.000000000000000000e+00 0.000000000000000000e+00 -2.692131299999999880e-02 1.044681455099999923e+01 0.000000000000000000e+00 -2.769337599999999872e-02 1.827489699999999828e-02 1.086531987300000068e+01
1.038208724599999933e+01 0.000000000000000000e+00 0.000000000000000000e+00 2.436661600000000066e-02 1.045079398000000026e+01 0.000000000000000000e+00 -5.324925000000000318e-03 4.468312199999999873e-02 1.082551999999999914e+01
1.034151413000000019e+01 0.000000000000000000e+00 0.000000000000000000e+00 -2.673255000000000076e-02 1.037356496700000008e+01 0.000000000000000000e+00 -2.749919899999999848e-02 1.814675899999999842e-02 1.078913586900000077e+01
1.033268092099999969e+01 0.000000000000000000e+00 0.000000000000000000e+00 -2.670970599999999973e-02 1.036470442999999975e+01 0.000000000000000000e+00 -2.747573299999999871e-02 1.813123399999999955e-02 1.077992043000000066e+01
1.047983821799999937e+01 0.000000000000000000e+00 0.000000000000000000e+00 2.459603700000000115e-02 1.054919184999999970e+01 0.000000000000000000e+00 -5.375061000000000422e-03 4.510382899999999806e-02 1.092744604600000002e+01
1.044059084699999929e+01 0.000000000000000000e+00 0.000000000000000000e+00 -2.698864999999999945e-02 1.047294879500000064e+01 0.000000000000000000e+00 -2.776267699999999949e-02 1.832058799999999876e-02 1.089250112699999917e+01
1.036699978500000086e+01 0.000000000000000000e+00 0.000000000000000000e+00 -2.679843000000000156e-02 1.039912960800000086e+01 0.000000000000000000e+00 -2.756696800000000072e-02 1.819147999999999946e-02 1.081572464399999944e+01
1.013170396199999956e+01 0.000000000000000000e+00 0.000000000000000000e+00 -2.619019599999999892e-02 1.016310454699999966e+01 0.000000000000000000e+00 -2.694129099999999916e-02 1.777859500000000120e-02 1.057024428499999935e+01
1.043652819000000065e+01 0.000000000000000000e+00 0.000000000000000000e+00 -2.697814899999999988e-02 1.046887354599999931e+01 0.000000000000000000e+00 -2.775187399999999929e-02 1.831345900000000068e-02 1.088826262199999917e+01
1.023587700500000075e+01 0.000000000000000000e+00 0.000000000000000000e+00 2.402346299999999837e-02 1.030361614699999961e+01 0.000000000000000000e+00 -5.249934000000000371e-03 4.405385199999999751e-02 1.067306492500000026e+01
1.037419337599999913e+01 0.000000000000000000e+00 0.000000000000000000e+00 -2.681702500000000128e-02 1.040634549399999997e+01 0.000000000000000000e+00 -2.758609600000000092e-02 1.820410299999999926e-02 1.082322960299999970e+01
1.036521048300000025e+01 0.000000000000000000e+00 0.000000000000000000e+00 2.432700700000000119e-02 1.043380553000000077e+01 0.000000000000000000e+00 -5.316269000000000203e-03 4.461048599999999781e-02 1.080792240799999959e+01
1.046476973200000060e+01 0.000000000000000000e+00 0.000000000000000000e+00 2.456067099999999920e-02 1.053402364399999946e+01 0.000000000000000000e+00 -5.367331999999999832e-03 4.503897600000000140e-02 1.091173396499999981e+01
1.033454431000000007e+01 0.000000000000000000e+00 0.000000000000000000e+00 -2.671453299999999864e-02 1.036657354599999969e+01 0.000000000000000000e+00 -2.748066500000000134e-02 1.813452899999999993e-02 1.078186436800000081e+01
1.064095356300000006e+01 0.000000000000000000e+00 0.000000000000000000e+00 2.497417199999999934e-02 1.071137342699999984e+01 0.000000000000000000e+00 -5.457695999999999728e-03 4.579724799999999874e-02 1.109544284200000064e+01
1.023560918899999983e+01 0.000000000000000000e+00 0.000000000000000000e+00 2.402283399999999985e-02 1.030334655899999952e+01 0.000000000000000000e+00 -5.249796999999999624e-03 4.405269900000000072e-02 1.067278567099999975e+01
1.040661156800000064e+01 0.000000000000000000e+00 0.000000000000000000e+00 2.442417499999999936e-02 1.047548059900000084e+01 0.000000000000000000e+00 -5.337503000000000386e-03 4.478867100000000212e-02 1.085109178799999974e+01
1.045566734099999984e+01 0.000000000000000000e+00 0.000000000000000000e+00 -2.702762300000000062e-02 1.048807201500000019e+01 0.000000000000000000e+00 -2.780276699999999906e-02 1.834704399999999985e-02 1.090823019099999946e+01
1.027031410200000039e+01 0.000000000000000000e+00 0.000000000000000000e+00 -2.654849999999999918e-02 1.030214427399999977e+01 0.000000000000000000e+00 -2.730986999999999998e-02 1.802182100000000037e-02 1.071485402200000081e+01
1.008017925400000081e+01 0.000000000000000000e+00 0.000000000000000000e+00 -2.605699599999999894e-02 1.011142019799999936e+01 0.000000000000000000e+00 -2.680430300000000154e-02 1.768815699999999949e-02 1.051648948699999941e+01
1.067164816999999921e+01 0.000000000000000000e+00 0.000000000000000000e+00 2.504621200000000172e-02 1.074227116399999993e+01 0.000000000000000000e+00 -5.473439000000000082e-03 4.592935299999999915e-02 1.112744845599999977e+01
1.041594763900000054e+01 0.000000000000000000e+00 0.000000000000000000e+00 -2.692494800000000063e-02 1.044822921199999932e+01 0.000000000000000000e+00 -2.769714800000000129e-02 1.827734599999999987e-02 1.086679126299999965e+01
1.022898705699999944e+01 0.000000000000000000e+00 0.000000000000000000e+00 2.400729199999999952e-02 1.029668060200000035e+01 0.000000000000000000e+00 -5.246400000000000022e-03 4.402419899999999997e-02 1.066588069800000049e+01
1.025314432999999958e+01 0.000000000000000000e+00 0.000000000000000000e+00 -2.650410599999999950e-02 1.028492133600000003e+01 0.000000000000000000e+00 -2.726423600000000072e-02 1.799166699999999938e-02 1.069694117999999960e+01
1.037154662999999921e+01 0.000000000000000000e+00 0.000000000000000000e+00 2.434187800000000082e-02 1.044018360799999989e+01 0.000000000000000000e+00 -5.319518999999999984e-03 4.463775600000000066e-02 1.081452917999999919e+01
1.021853991599999922e+01 0.000000000000000000e+00 0.000000000000000000e+00 2.398277299999999890e-02 1.028616432399999958e+01 0.000000000000000000e+00 -5.241041999999999576e-03 4.397923599999999794e-02 1.065498734600000041e+01
1.038596003400000001e+01 0.000000000000000000e+00 0.000000000000000000e+00 2.437570600000000046e-02 1.045469239700000053e+01 0.000000000000000000e+00 -5.326911000000000146e-03 4.469978899999999672e-02 1.082955819899999916e+01
1.033487766999999913e+01 0.000000000000000000e+00 0.000000000000000000e+00 -2.671539499999999942e-02 1.036690793900000074e+01 0.000000000000000000e+00 -2.748155199999999937e-02 1.813511400000000079e-02 1.078221215700000002e+01
1.044374348899999916e+01 0.000000000000000000e+00 0.000000000000000000e+00 -2.699680000000000135e-02 1.047611120800000073e+01 0.000000000000000000e+00 -2.777106000000000019e-02 1.832612000000000130e-02 1.089579022799999919e+01
1.029447412400000061e+01 0.000000000000000000e+00 0.000000000000000000e+00 -2.661094300000000148e-02 1.032637922099999983e+01 0.000000000000000000e+00 -2.737413600000000030e-02 1.806419100000000028e-02 1.074005989099999958e+01
1.000442047900000020e+01 0.000000000000000000e+00 0.000000000000000000e+00 2.348023800000000050e-02 1.007062788400000031e+01 0.000000000000000000e+00 -5.131221000000000046e-03 4.305769400000000052e-02 1.043172258300000088e+01
1.085387727500000032e+01 0.000000000000000000e+00 0.000000000000000000e+00 -2.805699600000000071e-02 1.088751604900000025e+01 0.000000000000000000e+00 -2.886162800000000028e-02 1.904582800000000076e-02 1.132367612300000026e+01
1.043543539999999936e+01 0.000000000000000000e+00 0.000000000000000000e+00 2.449182399999999885e-02 1.050449518199999943e+01 0.000000000000000000e+00 -5.352286999999999843e-03 4.491272500000000056e-02 1.088114672400000060e+01
1.008881938999999939e+01 0.000000000000000000e+00 0.000000000000000000e+00 -2.607933100000000073e-02 1.012008711200000022e+01 0.000000000000000000e+00 -2.682727799999999954e-02 1.770331899999999861e-02 1.052550360200000057e+01
1.058465295999999967e+01 0.000000000000000000e+00 0.000000000000000000e+00 -2.736105800000000060e-02 1.061745734299999988e+01 0.000000000000000000e+00 -2.814573100000000022e-02 1.857340700000000011e-02 1.104279871199999974e+01
1.034878691099999948e+01 0.000000000000000000e+00 0.000000000000000000e+00 2.428846100000000077e-02 1.041727327000000081e+01 0.000000000000000000e+00 -5.307845000000000271e-03 4.453980099999999692e-02 1.079079736399999945e+01
1.016710052900000072e+01 0.000000000000000000e+00 0.000000000000000000e+00 2.386204600000000134e-02 1.023438452100000084e+01 0.000000000000000000e+00 -5.214658999999999961e-03 4.375784700000000249e-02 1.060135091499999938e+01
1.039442776299999949e+01 0.000000000000000000e+00 0.000000000000000000e+00 -2.686931999999999862e-02 1.042664264000000074e+01 0.000000000000000000e+00 -2.763992399999999974e-02 1.823958399999999966e-02 1.084433992099999955e+01
1.038408995500000032e+01 0.000000000000000000e+00 0.000000000000000000e+00 -2.684260800000000044e-02 1.041627274400000047e+01 0.000000000000000000e+00 -2.761241299999999885e-02 1.822146900000000055e-02 1.083355454400000006e+01
1.024306434000000010e+01 0.000000000000000000e+00 0.000000000000000000e+00 -2.647806000000000118e-02 1.027481005799999991e+01 0.000000000000000000e+00 -2.723741000000000009e-02 1.797400500000000123e-02 1.068642478199999957e+01
1.047194781700000021e+01 0.000000000000000000e+00 0.000000000000000000e+00 -2.706971799999999956e-02 1.050440290000000054e+01 0.000000000000000000e+00 -2.784603600000000109e-02 1.837563799999999969e-02 1.092521524400000033e+01
1.046597014399999992e+01 0.000000000000000000e+00 0.000000000000000000e+00 -2.705425499999999928e-02 1.049840674800000073e+01 0.000000000000000000e+00 -2.783016300000000151e-02 1.836512300000000056e-02 1.091897894000000058e+01
1.007269552700000048e+01 0.000000000000000000e+00 0.000000000000000000e+00 -2.603765099999999846e-02 1.010391327700000019e+01 0.000000000000000000e+00 -2.678440299999999830e-02 1.767502500000000046e-02 1.050868183500000086e+01
1.035428822799999971e+01 0.000000000000000000e+00 0.000000000000000000e+00 2.430137300000000111e-02 1.042281099300000058e+01 0.000000000000000000e+00 -5.310666999999999818e-03 4.456347799999999665e-02 1.079653364900000057e+01
1.064778044800000067e+01 0.000000000000000000e+00 0.000000000000000000e+00 -2.752424100000000137e-02 1.068078047800000085e+01 0.000000000000000000e+00 -2.831359400000000096e-02 1.868418000000000162e-02 1.110865860800000071e+01
1.019163027399999955e+01 0.000000000000000000e+00 0.000000000000000000e+00 2.391961700000000066e-02 1.025907659900000013e+01 0.000000000000000000e+00 -5.227240000000000185e-03 4.386342000000000019e-02 1.062692835700000060e+01
1.024809822599999976e+01 0.000000000000000000e+00 0.000000000000000000e+00 -2.649107200000000092e-02 1.027985954500000076e+01 0.000000000000000000e+00 -2.725079600000000074e-02 1.798283800000000099e-02 1.069167655500000080e+01
1.044807402800000062e+01 0.000000000000000000e+00 0.000000000000000000e+00 2.452148599999999859e-02 1.051721745100000049e+01 0.000000000000000000e+00 -5.358769000000000206e-03 4.496711999999999931e-02 1.089432516599999978e+01
1.037076570199999992e+01 0.000000000000000000e+00 0.000000000000000000e+00 2.434004500000000112e-02 1.043939751199999932e+01 0.000000000000000000e+00 -5.319118000000000283e-03 4.463439500000000032e-02 1.081371489800000063e+01
1.026908827599999974e+01 0.000000000000000000e+00 0.000000000000000000e+00 -2.654533099999999840e-02 1.030091464799999912e+01 0.000000000000000000e+00 -2.730661100000000147e-02 1.801967000000000152e-02 1.071357513699999942e+01
1.038877967400000024e+01 0.000000000000000000e+00 0.000000000000000000e+00 2.438232300000000088e-02 1.045753069799999935e+01 0.000000000000000000e+00 -5.328356999999999712e-03 4.471192499999999959e-02 1.083249827100000040e+01
1.029191088199999982e+01 0.000000000000000000e+00 0.000000000000000000e+00 2.415497399999999920e-02 1.036002084599999939e+01 0.000000000000000000e+00 -5.278673999999999693e-03 4.429501400000000061e-02 1.073149208399999921e+01
1.033107128199999991e+01 0.000000000000000000e+00 0.000000000000000000e+00 -2.670555599999999835e-02 1.036308975400000065e+01 0.000000000000000000e+00 -2.747143000000000154e-02 1.812843499999999830e-02 1.077824101300000059e+01
1.052932067200000077e+01 0.000000000000000000e+00 0.000000000000000000e+00 -2.721802499999999986e-02 1.056195356699999977e+01 0.000000000000000000e+00 -2.799859700000000007e-02 1.847631300000000115e-02 1.098507142300000083e+01
1.040411318800000018e+01 0.000000000000000000e+00 0.000000000000000000e+00 2.441831100000000157e-02 1.047296568600000022e+01 0.000000000000000000e+00 -5.336221999999999840e-03 4.477791799999999989e-02 1.084848670000000048e+01
1.036110467600000007e+01 0.000000000000000000e+00 0.000000000000000000e+00 -2.678319100000000133e-02 1.039321622900000008e+01 0.000000000000000000e+00 -2.755129200000000153e-02 1.818113600000000052e-02 1.080957437200000015e+01
1.037381753100000026e+01 0.000000000000000000e+00 0.000000000000000000e+00 -2.681604300000000121e-02 1.040596853199999927e+01 0.000000000000000000e+00 -2.758511900000000169e-02 1.820341799999999899e-02 1.082283759599999939e+01
1.040323984299999971e+01 0.000000000000000000e+00 0.000000000000000000e+00 -2.689211000000000032e-02 1.043548198300000074e+01 0.000000000000000000e+00 -2.766333400000000123e-02 1.825507200000000066e-02 1.085353331600000004e+01
1.039644539899999920e+01 0.000000000000000000e+00 0.000000000000000000e+00 -2.687454599999999916e-02 1.042866648200000057e+01 0.000000000000000000e+00 -2.764526700000000115e-02 1.824314999999999964e-02 1.084644478200000073e+01
1.032098667700000050e+01 0.000000000000000000e+00 0.000000000000000000e+00 -2.667948700000000173e-02 1.035297389499999987e+01 0.000000000000000000e+00 -2.744461399999999912e-02 1.811073900000000070e-02 1.076771990700000003e+01
1.052191771300000056e+01 0.000000000000000000e+00 0.000000000000000000e+00 2.469479700000000097e-02 1.059154981900000081e+01 0.000000000000000000e+00 -5.396642999999999579e-03 4.528493299999999944e-02 1.097132281200000037e+01
1.054645073600000060e+01 0.000000000000000000e+00 0.000000000000000000e+00 2.475237500000000007e-02 1.061624519699999958e+01 0.000000000000000000e+00 -5.409225999999999618e-03 4.539051999999999670e-02 1.099690367300000027e+01
1.061175989300000033e+01 0.000000000000000000e+00 0.000000000000000000e+00 2.490565499999999877e-02 1.068198655900000027e+01 0.000000000000000000e+00 -5.442723000000000005e-03 4.567160199999999864e-02 1.106500227199999919e+01
1.021129269999999956e+01 0.000000000000000000e+00 0.000000000000000000e+00 2.396576400000000051e-02 1.027886914699999998e+01 0.000000000000000000e+00 -5.237325000000000140e-03 4.394804499999999808e-02 1.064743059100000089e+01
1.035169710000000087e+01 0.000000000000000000e+00 0.000000000000000000e+00 -2.675887299999999899e-02 1.038377949600000072e+01 0.000000000000000000e+00 -2.752627599999999883e-02 1.816462799999999864e-02 1.079975959799999963e+01
1.106608714599999921e+01 0.000000000000000000e+00 0.000000000000000000e+00 -2.860555299999999884e-02 1.110038360899999965e+01 0.000000000000000000e+00 -2.942591599999999988e-02 1.941820299999999846e-02 1.154507127799999999e+01
1.027609358800000017e+01 0.000000000000000000e+00 0.000000000000000000e+00 -2.656342899999999951e-02 1.030794171900000045e+01 0.000000000000000000e+00 -2.732526099999999999e-02 1.803193700000000135e-02 1.072088377300000062e+01
1.030524336799999929e+01 0.000000000000000000e+00 0.000000000000000000e+00 -2.663878100000000027e-02 1.033718184099999959e+01 0.000000000000000000e+00 -2.740277299999999833e-02 1.808308800000000063e-02 1.075129527100000004e+01
1.051578441899999916e+01 0.000000000000000000e+00 0.000000000000000000e+00 -2.718302400000000008e-02 1.054837541000000023e+01 0.000000000000000000e+00 -2.796262500000000137e-02 1.845253399999999960e-02 1.097094937600000009e+01
1.044486743999999945e+01 0.000000000000000000e+00 0.000000000000000000e+00 -2.699971599999999999e-02 1.047723859399999924e+01 0.000000000000000000e+00 -2.777402600000000027e-02 1.832811800000000088e-02 1.089696271999999944e+01
1.019736964300000004e+01 0.000000000000000000e+00 0.000000000000000000e+00 2.393308699999999872e-02 1.026485394999999912e+01 0.000000000000000000e+00 -5.230183999999999701e-03 4.388812200000000163e-02 1.063291286299999960e+01
1.039731862600000056e+01 0.000000000000000000e+00 0.000000000000000000e+00 2.440236399999999931e-02 1.046612615899999987e+01 0.000000000000000000e+00 -5.332736999999999720e-03 4.474867500000000164e-02 1.084140193300000021e+01
1.012707198100000028e+01 0.000000000000000000e+00 0.000000000000000000e+00 -2.617821199999999932e-02 1.015845825699999949e+01 0.000000000000000000e+00 -2.692899600000000018e-02 1.777044200000000088e-02 1.056541191800000057e+01
1.031838036299999928e+01 0.000000000000000000e+00 0.000000000000000000e+00 -2.667274000000000034e-02 1.035035955100000038e+01 0.000000000000000000e+00 -2.743770599999999921e-02 1.810613999999999973e-02 1.076500088699999935e+01
1.035511959099999935e+01 0.000000000000000000e+00 0.000000000000000000e+00 2.430332400000000115e-02 1.042364785800000071e+01 0.000000000000000000e+00 -5.311093000000000237e-03 4.456705600000000073e-02 1.079740052100000014e+01
1.042258910400000005e+01 0.000000000000000000e+00 0.000000000000000000e+00 2.446167399999999922e-02 1.049156387200000040e+01 0.000000000000000000e+00 -5.345698000000000290e-03 4.485743600000000053e-02 1.086775174599999971e+01
1.107554735999999984e+01 0.000000000000000000e+00 0.000000000000000000e+00 -2.862999600000000130e-02 1.110987319400000040e+01 0.000000000000000000e+00 -2.945109599999999953e-02 1.943477600000000083e-02 1.155494108199999914e+01
