-9.400504077000000507e+02
-9.039529470200000105e+02
-8.844439824400000134e+02
-8.919691261200000554e+02
-9.451308628399999634e+02
-9.465538063200000352e+02
-9.096267327100000557e+02
-9.108864875499999698e+02
-8.946654974299999594e+02
-9.214525658799999519e+02
-9.090313838199999736e+02
-9.265459780300000148e+02
-8.954453309900000022e+02
-9.298049818099999584e+02
-8.938440382200000158e+02
-9.167258470000000443e+02
-9.191994330500000387e+02
-9.141032736399999976e+02
-9.251465153100000407e+02
-9.025494524199999660e+02
-8.970665140400000155e+02
-9.279568891899999699e+02
-8.863818585400000529e+02
-8.991697678199999473e+02
-9.053448071100000334e+02
-9.236320562299999892e+02
-9.091247592400000030e+02
-8.986354668799999672e+02
-9.011972855100000288e+02
-9.231897444799999448e+02
-9.276739958199999592e+02
-9.088714873200000284e+02
-9.255004042100000561e+02
-9.064855374700000539e+02
-9.035217251100000340e+02
-9.131410281099999793e+02
-9.311461021699999492e+02
-8.954878873699999531e+02
-9.321749780799999598e+02
-9.156772094799999877e+02
-9.093166562500000509e+02
-9.372799999000000071e+02
-9.269534854199999927e+02
-8.988535002400000167e+02
-9.111460741800000278e+02
-9.130637805200000230e+02
-9.207066004499999963e+02
-9.016368948900000078e+02
-9.188514776600000005e+02
-9.097644670800000313e+02
-9.166494282800000519e+02
-9.063952735699999721e+02
-9.311283524299999499e+02
-9.484563764399999855e+02
-8.945798764300000130e+02
-9.148017211200000247e+02
-9.412453087400000413e+02
-8.934823566500000425e+02
-9.151247757899999442e+02
-9.125486640100000386e+02
-8.989805358300000080e+02
-9.130818619699999772e+02
-9.387338054299999612e+02
-9.133831777999999986e+02
-9.145514315100000431e+02
-9.399722917799999777e+02
-9.071633238199999596e+02
-8.931226515500000005e+02
-9.332856174500000179e+02
-9.194040696099999650e+02
-8.952640701699999681e+02
-9.250262334899999814e+02
-9.337188323999999966e+02
-9.360457833000000392e+02
-9.397987310099999831e+02
-9.189913702400000375e+02
-9.004964059500000531e+02
-9.257655035799999723e+02
-9.169183661499999971e+02
-9.239814766900000222e+02
-9.006321914500000503e+02
-9.156597921799999540e+02
-9.120126592599999640e+02
-9.083511000199999899e+02
-8.955623817900000176e+02
-8.917218100300000287e+02
-9.181068296800000326e+02
-9.092191564299999982e+02
-8.805144819600000119e+02
-9.332656253200000265e+02
-9.171231416399999716e+02
-9.031152857199999744e+02
-9.047147488199999543e+02
-9.242657458600000382e+02
-9.373576857000000473e+02
-9.345027540600000293e+02
-9.287830236700000341e+02
-9.263216590399999859e+02
-9.037355131199999505e+02
-8.823681182399999443e+02
