-7.344450000000000145e-01 1.235916000000000015e+00 1.906450000000000089e-01 -9.489300000000000512e-02 -1.041867000000000099e+00 8.920200000000000351e-02 -1.254305999999999921e+00 4.746929999999999761e-01 2.618141000000000052e+00 -1.790299999999999878e-02 -6.051790000000000225e-01 -7.776349999999999651e-01 1.574524999999999952e+00 -1.355703000000000102e+00 2.405162999999999940e+00 -5.363419999999999854e-01 -1.298178000000000054e+00 5.443109999999999893e-01 2.055852999999999930e+00 1.233650000000000024e-01 -5.137040000000000495e-01 -2.036799999999999999e-01 2.612129999999999730e-01 2.252804999999999946e+00 1.456879000000000035e+00 5.524649999999999839e-01 1.317034999999999956e+00 7.913860000000000339e-01 -2.995659999999999989e-01 -5.543949999999999712e-01 -2.557610000000000161e-01 1.315231000000000039e+00 -9.610919999999999463e-01 6.355880000000000418e-01 -1.439996000000000054e+00 -2.254500000000000115e-01 -1.059600000000000097e+00 2.194119999999999959e-01 -6.532930000000000126e-01 1.709009999999999974e-01 7.736400000000000221e-02 7.949720000000000120e-01 3.650320000000000231e-01 5.431970000000000409e-01 1.196580000000000005e-01 -8.368560000000000443e-01 2.609279999999999933e-01 2.131500000000000061e-01 -1.595599999999999907e+00 -1.258702999999999905e+00 -7.165610000000000035e-01 1.928519999999999956e-01 -1.103360000000000035e-01 -1.188897000000000093e+00 1.891529999999999878e-01 -5.662009999999999543e-01 -3.926419999999999910e-01 -1.848395000000000010e+00 5.514809999999999990e-01 -1.799500000000000099e+00 3.107929999999999859e-01 -7.937539999999999596e-01 -7.559770000000000101e-01 5.282459999999999933e-01 1.310890000000000111e-01 -7.704800000000000537e-02 4.240189999999999793e-01 1.029778000000000082e+00 -6.933799999999999963e-01 -1.154172999999999893e+00 -2.007725000000000204e+00 -5.970050000000000079e-01 1.007158999999999915e+00 -3.490309999999999802e-01 2.091300000000000103e-01 2.846449999999999925e+00 1.768253999999999992e+00 -3.579800000000000343e-02 9.127600000000000158e-01 5.938290000000000513e-01 1.024588999999999972e+00 3.113026000000000071e+00 -1.735484999999999944e+00 -1.837029999999999941e+00 -6.364819999999999922e-01 -3.459329999999999905e-01 5.790849999999999609e-01 1.346930000000000072e-01 -1.164776999999999951e+00 1.486321999999999921e+00 1.330600000000000012e-02 -1.234320000000000001e-01 -1.726485000000000047e+00 1.203930000000000000e-01 2.170768999999999949e+00 2.011171000000000042e+00 -1.520683999999999925e+00 5.530880000000000241e-01 -2.608516999999999975e+00 1.978299999999999850e-02 4.526800000000000268e-02 9.494240000000000457e-01 3.294839999999999991e-01 6.542970000000000175e-01 8.877169999999999783e-01 -2.104617000000000182e+00 -1.407659999999999911e+00 2.522110000000000185e-01 -7.639939999999999509e-01 -4.071750000000000091e-01 -1.167451000000000016e+00 -6.372839999999999616e-01 2.725389999999999757e-01 3.588239999999999763e-01 -4.274900000000000228e-02 -3.008620000000000183e-01 5.273499999999999716e-02 -8.224299999999999944e-01 -1.880439999999999889e-01 5.448239999999999750e-01 3.190779999999999728e-01 4.892480000000000162e-01 5.592219999999999969e-01 3.838300000000000045e-02 1.747943999999999942e+00 6.283739999999999881e-01 1.290159999999999973e+00 1.274731000000000058e+00 -1.762700000000000031e-02 8.084949999999999637e-01 -1.996189999999999909e-01 6.571289999999999631e-01 7.344150000000000400e-01 5.320200000000000484e-01 7.175310000000000299e-01 7.767389999999999572e-01 -4.176159999999999872e-01 2.795800000000000021e-02 -1.280871000000000093e+00 -5.561430000000000540e-01 4.903029999999999888e-01 -1.354557000000000011e+00 1.034327999999999914e+00 8.415719999999999867e-01 -3.332499999999999907e-01 2.765779999999999905e-01 -1.132115999999999900e+00 1.225720000000000004e-01 6.285209999999999964e-01 4.993239999999999901e-01 -5.644759999999999778e-01 -7.009940000000000060e-01 -2.000912000000000024e+00 -5.519969999999999599e-01 -8.361319999999999864e-01 -3.305000000000000212e-03 -5.531840000000000090e-01 1.035368000000000066e+00 7.777509999999999701e-01 8.259450000000000403e-01 -1.204780000000000018e-01 4.066250000000000142e-01 7.440219999999999612e-01 6.321860000000000257e-01 -1.213402000000000092e+00 -1.278602999999999934e+00 -6.667459999999999498e-01 -8.020310000000000494e-01 2.694270000000000276e-01 -4.792620000000000213e-01 -7.360300000000000176e-02 -1.207194000000000100e+00 -7.067080000000000028e-01 -6.880460000000000464e-01 -4.648140000000000049e-01 3.333639999999999937e-01 -1.255735000000000046e+00 3.535100000000000048e-02 -1.523876000000000008e+00 -2.017501999999999907e+00 -2.860929999999999862e-01 1.549409999999999954e+00 -3.719000000000000083e-01 -1.735576000000000008e+00 -1.239487999999999923e+00 1.250002000000000058e+00 2.179510000000000058e-01 1.643529999999999991e-01 -6.599220000000000086e-01 1.905640000000000112e-01 5.894100000000000034e-02 2.831629999999999980e-01 5.151210000000000511e-01 -1.368900000000000117e-01 -1.882709999999999939e-01 -2.964499999999999913e-01 -1.866630000000000011e+00 -8.823710000000000164e-01 6.595609999999999529e-01 4.059450000000000003e-01 -6.171900000000000164e-01 1.899542000000000064e+00 -1.397604000000000068e+00 1.021665000000000045e+00 -5.777060000000000528e-01 -5.567170000000000174e-01 4.559270000000000267e-01 1.711179999999999923e-01 7.504170000000000007e-01 5.613000000000000211e-01 -2.181760000000000088e-01 -1.595990999999999937e+00 6.157000000000000250e-01 1.181257999999999919e+00 9.379709999999999992e-01 -5.387200000000000322e-02 -8.839479999999999560e-01 -6.931150000000000366e-01 1.022922000000000109e+00 -5.068160000000000442e-01 1.938253000000000004e+00 -7.861629999999999452e-01 -1.248121999999999954e+00 1.532445000000000057e+00 6.554299999999999571e-01 -7.483840000000000492e-01 -4.804390000000000049e-01 1.123105999999999938e+00 -7.294599999999999973e-01 4.542349999999999999e-01 -6.582449999999999690e-01 -1.123048999999999964e+00 5.851549999999999807e-01 1.077237000000000000e+00 6.874519999999999520e-01 -1.200099999999999945e+00 -5.271289999999999587e-01 -2.350079999999999947e-01 1.516693999999999987e+00 1.245306999999999942e+00 -3.462749999999999995e-01 2.915679999999999938e-01 -1.848180000000000101e-01 6.201560000000000406e-01 7.061699999999999922e-02 -1.431194999999999995e+00 6.862850000000000339e-01 2.184919999999999918e-01 2.471379999999999966e-01 -1.618439999999999879e-01 3.900660000000000238e-01 8.103460000000000107e-01 9.316299999999999581e-02 -1.093614000000000086e+00 1.069498000000000060e+00 2.992250000000000187e-01 4.909800000000000275e-01 -3.887349999999999972e-01 -3.901160000000000183e-01 1.330409999999999926e-01 3.110109999999999819e-01 5.403430000000000177e-01 3.438820000000000210e-01 6.373229999999999729e-01 -8.939070000000000071e-01 -1.058124000000000065e+00 -1.278891000000000000e+00 3.676619999999999888e-01 6.769290000000000029e-01 -3.034390000000000143e-01 -6.680460000000000287e-01 -2.031040000000000068e-01 5.640499999999999681e-02 1.565080999999999944e+00 1.011779999999999902e+00 -4.246369999999999867e-01 1.456617000000000051e+00 -8.593199999999999450e-02 -5.385199999999999987e-01 4.501479999999999926e-01 2.752890000000000059e-01 -1.168946999999999958e+00
7.951949999999999852e-01 1.617023000000000099e+00 -1.999376999999999960e+00 2.748799999999999855e-02 -2.015838000000000019e+00 9.462350000000000483e-01 3.431421999999999972e+00 3.531414999999999971e+00 -2.070816000000000212e+00 -8.177000000000000240e-03 1.584773999999999905e+00 3.786182999999999854e+00 -2.093899999999999928e-01 1.143964999999999899e+00 -3.871359999999999801e-01 1.730804000000000009e+00 2.218677000000000010e+00 2.329029999999999989e-01 -2.638949999999999907e+00 2.846169000000000171e+00 -2.764034999999999798e+00 2.462380000000000013e+00 1.620279999999999943e+00 5.474609999999999754e-01 -1.408709999999999907e+00 1.767101000000000033e+00 2.300689999999999957e-01 3.486009000000000135e+00 4.773102999999999874e+00 6.247148000000000145e+00 1.526270000000000016e+00 1.672352000000000061e+00 -2.459931000000000090e+00 3.055994000000000099e+00 6.713209999999999456e-01 -1.973348000000000102e+00 3.020891000000000215e+00 -2.887446000000000179e+00 6.361130000000000395e-01 -1.757573000000000052e+00 1.596182999999999907e+00 1.839999999999999969e-01 1.532836000000000087e+00 2.064560000000000173e+00 5.524820000000000286e-01 -7.485200000000000187e-02 -1.578986999999999918e+00 -2.376049000000000078e+00 2.340869000000000089e+00 -2.989472000000000129e+00 2.506620999999999988e+00 -1.002952000000000066e+00 7.683910000000000462e-01 -2.045253000000000210e+00 -3.192253000000000007e+00 -2.895418999999999965e+00 -2.882209000000000021e+00 3.335573999999999817e+00 -3.623879999999999879e-01 -1.105180000000000051e+00 -1.465718000000000076e+00 3.035226000000000202e+00 -1.251457000000000042e+00 -4.055882000000000431e+00 -2.343474000000000057e+00 2.241433999999999926e+00 -1.938253999999999921e+00 -2.579476000000000102e+00 1.088869999999999977e-01 8.064620000000000122e-01 -1.976331999999999978e+00 4.002800000000000108e-02 9.862450000000000383e-01 -9.000920000000000032e-01 -3.689240999999999993e+00 8.436909999999999688e-01 4.443293999999999855e+00 1.952353000000000005e+00 1.204247000000000067e+00 -1.687869000000000064e+00 -2.252480999999999955e+00 -4.734189999999999787e-01 -1.363299999999999956e+00 3.206149999999999833e-01 3.923780000000000046e-01 -1.899858000000000047e+00 -2.589386999999999883e+00 -3.309181999999999846e+00 5.752699999999999481e-01 -1.376098999999999961e+00 1.291328000000000031e+00 1.731468000000000007e+00 1.654100000000000015e-01 -2.681080999999999825e+00 2.134205000000000130e+00 -5.114454000000000278e+00 4.110692000000000235e+00 2.142650000000000110e-01 2.905520000000000103e+00 -1.635620999999999992e+00 9.663800000000000168e-01 -1.599293000000000076e+00 1.024696999999999969e+00 -6.168190000000000062e-01 -5.064189999999999525e-01 -1.193902000000000019e+00 -9.538349999999999884e-01 -1.119985000000000008e+00 -9.239899999999999503e-02 1.622529000000000110e+00 -2.170209999999999917e-01 -2.088190000000000046e-01 -1.632490000000000052e-01 4.829640000000000044e-01 -2.429542999999999786e+00 1.597957999999999990e+00 3.588074000000000208e+00 2.756822000000000106e+00 2.716950000000000198e+00 2.566431000000000129e+00 -1.675590000000000135e-01 -1.375615999999999950e+00 -8.045060000000000544e-01 -1.516329999999999956e+00 6.278169999999999584e-01 1.809015999999999957e+00 1.520389999999999908e+00 3.510800000000000032e-01 5.080879999999999841e-01 5.443599999999999828e-02 2.050082999999999878e+00 1.661296000000000106e+00 2.448160000000000058e-01 5.397710000000000008e-01 1.110290999999999917e+00 -6.791859999999999564e-01 -2.779126999999999903e+00 2.866071999999999953e+00 -2.642551000000000094e+00 2.519846999999999948e+00 2.093650999999999929e+00 7.487700000000000466e-01 6.408380000000000187e-01 7.404359999999999831e-01 9.467740000000000045e-01 -2.521666999999999881e+00 -1.783066999999999958e+00 -2.957882999999999818e+00 1.434600000000000042e-01 -1.575342000000000020e+00 -9.670700000000000129e-02 -1.014039999999999941e-01 -8.820099999999999607e-01 3.420560000000000267e-01 -1.370784000000000002e+00 6.749910000000000077e-01 1.063029999999999919e+00 2.955197000000000074e+00 -8.871440000000000436e-01 2.242504999999999971e+00 -2.687965999999999855e+00 8.107440000000000202e-01 4.929839999999999778e-01 -9.788080000000000114e-01 2.593173999999999868e+00 -1.639637999999999929e+00 -4.721446000000000254e+00 -3.304936000000000096e+00 -1.141429999999999945e+00 -2.400420000000000054e-01 -3.235049999999999870e-01 -1.029006000000000087e+00 2.217399999999999927e-02 -2.087747999999999937e+00 3.598942000000000085e+00 -3.179170000000000051e+00 2.026673999999999864e+00 -1.117620000000000058e+00 -4.771210000000000173e-01 -5.001828999999999859e+00 -1.497360000000000080e-01 -9.620940000000000047e-01 -2.041323000000000221e+00 -9.320509999999999629e-01 1.184053999999999940e+00 -9.586639999999999606e-01 7.934830000000000494e-01 3.317240000000000189e-01 -3.140331000000000206e+00 8.874440000000000106e-01 1.675070000000000059e+00 3.130386999999999809e+00 3.978900000000000214e-01 -1.299088999999999938e+00 4.185559999999999836e-01 -2.962422999999999806e+00 -2.532245000000000079e+00 -3.232488000000000028e+00 1.238009999999999944e-01 2.718490000000000073e-01 -1.421290000000000053e-01 -2.415789999999999882e-01 -1.820100000000000051e-01 -1.132945000000000091e+00 5.638570000000000526e-01 9.687179999999999680e-01 -1.330494999999999983e+00 -1.190727000000000091e+00 -3.696126000000000023e+00 2.068312999999999846e+00 -2.208976999999999968e+00 7.166489999999999805e-01 -2.944824999999999804e+00 1.167509999999999937e-01 -1.136873000000000022e+00 -3.034234999999999793e+00 4.522180000000000089e-01 -2.609099999999999961e-02 1.198501000000000039e+00 1.848913000000000029e+00 9.090620000000000367e-01 -8.418109999999999760e-01 2.846960000000000046e-01 -8.829259999999999886e-01 -1.241099999999999981e-01 -2.409463000000000132e+00 -1.354913000000000034e+00 -3.870810000000000084e-01 -1.906700999999999979e+00 1.562926000000000037e+00 1.387321999999999944e+00 1.968830000000000080e+00 -1.458472999999999908e+00 2.056410000000000071e+00 1.832484999999999919e+00 2.332247999999999877e+00 2.931321000000000065e+00 -3.240482999999999780e+00 1.216731999999999925e+00 2.970813000000000148e+00 -6.848689999999999500e-01 -2.379153000000000073e+00 1.453945000000000043e+00 -1.350162000000000084e+00 1.521123000000000003e+00 1.333940000000000126e-01 -1.827403000000000111e+00 -5.554140000000000299e+00 4.317258999999999958e+00 -9.753900000000000070e-02 -1.351788999999999907e+00 9.159709999999999797e-01 -2.130339999999999900e+00 -1.065295000000000103e+00 2.522206000000000170e+00 4.616620000000000168e-01 -1.703759999999999941e+00 -1.588392999999999944e+00 -1.247902999999999984e+00 5.186969999999999636e-01 3.663949000000000122e+00 8.929409999999999847e-01 5.523850000000000149e-01 -1.939642000000000088e+00 3.312364999999999782e+00 1.491687999999999903e+00 2.238929000000000169e+00 1.459662000000000015e+00 1.723154000000000075e+00 -8.103010000000000490e-01 1.354368999999999934e+00 -1.370329999999999881e-01 2.999366999999999894e+00 -4.889000000000000290e-02 1.156738000000000044e+00 -4.895979999999999777e-01 -1.372177999999999898e+00 -1.907353000000000076e+00 -2.344090000000000062e-01 -1.402349000000000068e+00 3.804259999999999864e-01 -7.399719999999999631e-01
2.393517000000000117e+00 -3.919469999999999898e-01 1.139192999999999900e+00 -2.578216999999999981e+00 -4.120365999999999751e+00 -5.680899999999999839e-02 5.473569999999999824e-01 -4.888129999999999975e-01 7.528270000000000239e-01 -3.698195999999999817e+00 2.580201999999999884e+00 -3.211285000000000167e+00 -1.876722000000000001e+00 -3.824799999999999728e-02 1.605825999999999976e+00 3.973073999999999995e+00 3.673214000000000201e+00 -7.981909999999999838e-01 -1.621930000000000094e+00 -1.104848000000000052e+00 1.013208000000000109e+00 -1.273700000000000110e-01 3.599415000000000031e+00 -4.084063000000000443e+00 -8.571539999999999715e-01 -2.727468000000000004e+00 -4.016390000000000238e-01 -3.996299999999999852e-01 -1.441235000000000044e+00 8.567879999999999940e-01 3.607493999999999978e+00 2.699929999999999830e-01 -3.471249999999999947e+00 -1.228286999999999907e+00 -3.158889999999999754e-01 5.294499999999999901e-02 -1.207209999999999894e+00 -1.995133000000000045e+00 1.038489999999999969e-01 2.410956999999999795e+00 4.971639999999999948e-01 1.361829999999999985e-01 -1.542993999999999977e+00 1.007022000000000084e+00 1.904144999999999976e+00 -1.203270000000000062e+00 5.929108000000000267e+00 2.583739000000000008e+00 -2.388948000000000071e+00 -6.849709999999999965e-01 3.377780000000000227e-01 -1.495346000000000064e+00 4.197138999999999953e+00 -1.726253999999999955e+00 -2.071228000000000069e+00 -1.521641000000000021e+00 -4.467599999999999905e-01 -1.953638999999999903e+00 9.551469999999999683e-01 2.361641000000000101e+00 -1.833828000000000014e+00 -4.408210000000000184e-01 -5.922870000000000079e-01 1.240911000000000097e+00 -3.354829999999999757e-01 -1.744261999999999979e+00 5.879300999999999888e+00 2.792936000000000085e+00 -3.319056999999999924e+00 -1.483095999999999970e+00 -1.714143999999999890e+00 -5.301100000000000256e-02 2.339100000000000068e-01 2.293633999999999951e+00 -3.699498999999999871e+00 -6.348212000000000188e+00 -5.960585000000000022e+00 5.624215999999999660e+00 2.383744000000000085e+00 2.567487999999999992e+00 -1.207618000000000080e+00 1.358603000000000005e+00 -2.635015000000000107e+00 1.074402999999999997e+00 5.726529999999999676e-01 -5.399289999999999923e-01 2.002396000000000065e+00 -1.948429999999999884e-01 -7.016000000000000014e-02 2.688717000000000024e+00 -2.593463999999999992e+00 8.097000000000000031e-02 1.128750000000000031e-01 5.133299999999999669e-02 1.559100000000000069e-02 5.954530000000000101e-01 1.608350000000000057e-01 -2.168463000000000029e+00 -5.198199999999999488e-01 -9.509999999999999565e-01 2.054110000000000102e-01 -1.107782000000000044e+00 1.652743999999999991e+00 2.576334999999999820e+00 -7.394709999999999894e-01 -4.084929999999999950e-01 -1.797555000000000014e+00 1.324870999999999910e+00 1.186640000000000056e-01 1.571037000000000017e+00 -1.654271999999999965e+00 1.773444000000000020e+00 -2.585219999999999740e-01 -1.446420000000000039e+00 1.748515000000000041e+00 -3.102072999999999858e+00 -7.123580000000000467e-01 -5.718790000000000262e-01 -6.911100000000000021e-01 -2.846150000000000069e-01 -2.856670000000000043e-01 1.015098000000000056e+00 -1.563169999999999948e+00 1.358681000000000028e+00 9.742250000000000076e-01 -2.973919999999999897e-01 -1.247390999999999917e+00 -7.950559999999999850e-01 6.320919999999999872e-01 4.468969999999999887e-01 1.374393999999999894e+00 -1.156340000000000007e-01 1.173581999999999903e+00 2.306150999999999840e+00 -1.683070000000000066e+00 -1.761570000000000080e+00 7.603844999999999743e+00 -2.554553999999999991e+00 6.812350000000000350e-01 -5.784230000000000205e-01 -5.008080000000000309e-01 -8.313719999999999999e-01 -9.682250000000000023e-01 5.285134000000000221e+00 -5.943789999999999907e-01 -4.942500000000000226e-01 1.141089999999999938e+00 -4.066949999999999732e-01 5.983730000000000437e-01 7.437219999999999942e-01 -7.509470000000000312e-01 3.934337999999999891e+00 4.482280000000000153e-01 -2.145966000000000040e+00 -1.389990999999999977e+00 2.487646999999999942e+00 -2.004664000000000001e+00 2.225241000000000025e+00 -1.261498999999999926e+00 1.583903999999999979e+00 2.247024000000000132e+00 6.964029999999999943e-01 6.381710000000000438e-01 1.023236999999999952e+00 4.515250000000000097e-01 5.472939999999999472e-01 -3.411089999999999955e-01 -1.463199999999999917e-02 -6.517990000000000173e-01 4.464270000000000183e-01 -2.517126999999999892e+00 -7.966560000000000308e-01 3.044600000000000084e-02 2.248979999999999868e-01 -2.897919999999999940e-01 -5.577734999999999665e+00 -2.467700999999999922e+00 -5.150130000000000541e-01 -1.682916999999999996e+00 3.107956000000000163e+00 3.025710000000000122e+00 -2.500652000000000097e+00 9.948759999999999826e-01 9.582429999999999559e-01 5.896329999999999627e-01 2.090554000000000023e+00 -1.822694000000000036e+00 2.224119999999999986e-01 8.778500000000000192e-02 -2.100617000000000179e+00 -5.207049999999999734e-01 1.697001999999999899e+00 2.187355999999999856e+00 -4.577499999999999902e-01 -5.326589999999999936e-01 1.233996000000000093e+00 8.868489999999999984e-01 -5.096399999999999819e-01 -2.057706000000000035e+00 -1.601499000000000006e+00 9.255079999999999973e-01 2.146182000000000034e+00 -3.155517000000000127e+00 3.475759999999999961e-01 4.292070000000000052e-01 1.288749999999999896e-01 1.907397000000000009e+00 -3.842321000000000097e+00 2.197592000000000212e+00 -1.622937000000000074e+00 -1.998232000000000008e+00 -2.834639999999999938e-01 -3.659250000000000114e+00 8.286999999999999922e-01 -4.031583999999999612e+00 1.414493000000000000e+00 -2.784630000000000161e-01 -1.513036000000000048e+00 4.604690000000000172e-01 4.015509999999999913e-01 -1.690534999999999899e+00 -4.420789999999999997e-01 -4.267940000000000067e-01 1.112822999999999896e+00 1.546057000000000015e+00 1.477569999999999995e-01 7.256970000000000365e-01 3.209433999999999898e+00 -1.921670000000000045e-01 4.546799999999999731e-01 2.529408999999999796e+00 -2.424000000000000044e-01 7.702339999999999742e-01 -1.245114999999999972e+00 3.165979999999999905e-01 2.535780000000000256e-01 -1.109623000000000026e+00 -2.384930000000000105e-01 1.034121000000000068e+00 -1.863750999999999935e+00 1.087024999999999908e+00 4.463480000000000225e-01 1.643315999999999999e+00 -1.465257000000000032e+00 9.990390000000000104e-01 9.805979999999999697e-01 8.295810000000000128e-01 -1.891304000000000096e+00 -1.484669999999999934e+00 4.934979999999999922e-01 7.513899999999999746e-02 -1.421213999999999977e+00 7.959515999999999813e+00 -3.851027999999999896e+00 -4.283751999999999782e+00 1.971643999999999952e+00 8.501379999999999493e-01 2.130460000000000131e-01 1.129312000000000094e+00 -3.760760000000000214e-01 -6.667800000000000116e-02 1.653712999999999989e+00 -1.687996999999999970e+00 2.267745000000000122e+00 2.122891999999999779e+00 -7.238919999999999799e-01 -4.831230000000000246e-01 6.308139999999999858e-01 -5.263999999999999790e-01 4.931570000000000120e-01 1.368457000000000034e+00 -5.723299999999999915e-02 -3.583966999999999903e+00 -1.733679999999999943e-01 7.369499999999999662e-02 -5.096739999999999604e-01 -1.051363000000000048e+00 -2.417300000000000004e-01 7.684590000000000032e-01 -6.518319999999999670e-01 2.071073999999999860e+00 2.003810999999999787e+00
5.110368000000000244e+00 -1.560211999999999932e+00 -1.359375000000000000e+00 -3.218170000000000197e+00 -1.722239999999999993e+00 -3.652114000000000082e+00 8.748699999999999533e-02 -2.295894000000000101e+00 -3.640149999999999775e-01 -2.459998000000000129e+00 -2.262420000000000098e+00 7.728195000000000370e+00 -3.674229999999999996e-01 -1.119790999999999981e+00 -9.966310000000000446e-01 1.303819000000000061e+00 5.378600000000000048e-02 -1.617045999999999983e+00 -5.634980000000000544e-01 1.712406000000000095e+00 -9.350899999999999490e-02 -9.420000000000000205e-04 1.279584000000000055e+00 2.544570000000000221e+00 8.795460000000000500e-01 3.486619999999999830e+00 -1.725797999999999943e+00 2.974559999999999871e+00 -3.500232000000000010e+00 2.349026999999999976e+00 1.446230000000000016e-01 -7.350060000000000482e-01 1.728380000000000027e+00 4.355324999999999669e+00 1.211294000000000093e+00 -1.453044999999999920e+00 2.278814999999999813e+00 -3.605065000000000186e+00 7.791959999999999997e-01 -9.206509999999999971e-01 1.865559999999999996e-01 3.997760000000000202e-01 1.537457000000000074e+00 1.626919999999999922e+00 4.327233999999999803e+00 1.441815000000000069e+00 1.467438000000000020e+00 -1.983665000000000012e+00 -6.005936000000000163e+00 -4.427876000000000367e+00 -4.959430000000000227e-01 -3.795609999999999817e-01 -4.908879999999999910e-01 -9.367300000000000626e-02 -2.267218000000000178e+00 5.803984999999999950e+00 -2.703749000000000180e+00 1.699062999999999990e+00 1.096263800000000010e+01 9.495850000000000124e-01 -1.455270999999999981e+00 -3.570953999999999962e+00 5.748550000000000049e-01 2.606475999999999793e+00 2.788895000000000124e+00 -1.882770000000000055e+00 2.689671999999999841e+00 8.169600000000000195e-01 3.350220000000000198e+00 4.744659000000000404e+00 1.211676999999999893e+00 7.167440000000000477e-01 -1.092756000000000061e+00 -3.475010999999999850e+00 -3.735762999999999945e+00 -2.393460000000000032e-01 -1.025477999999999890e+00 1.235748999999999986e+00 -3.691909999999999914e-01 1.331121999999999916e+00 2.044773000000000174e+00 -2.129010000000000069e-01 -2.674199999999999910e+00 -1.222530000000000006e-01 2.262824999999999864e+00 -2.299456000000000166e+00 -2.269476000000000049e+00 -1.445181999999999967e+00 -7.355789999999999829e-01 1.171169999999999989e-01 -4.005349999999999744e-01 1.562958999999999987e+00 1.367402000000000006e+00 6.415680000000000271e-01 -4.454038999999999859e+00 4.059318000000000204e+00 -1.967346999999999957e+00 3.626955999999999847e+00 -8.242350000000000509e-01 3.230843999999999827e+00 -3.418337999999999877e+00 -9.170930000000000470e-01 -1.163483000000000045e+00 -7.708669999999999689e-01 -1.572716999999999921e+00 1.006409999999999944e-01 7.462159999999999904e-01 1.243408999999999986e+00 -4.944779999999999731e-01 -1.408039000000000041e+00 7.408169999999999478e-01 -2.849486000000000185e+00 1.398341999999999974e+00 2.533859999999999779e+00 -8.348119999999999985e-01 -1.516826000000000008e+00 3.472841999999999985e+00 -1.505147999999999930e+00 1.890190000000000037e+00 -8.015379999999999727e-01 8.636019999999999808e-01 -9.266489999999999450e-01 4.347286999999999679e+00 -1.977381000000000055e+00 -2.590838999999999892e+00 -1.451486000000000054e+00 -1.342135000000000078e+00 -9.770729999999999693e-01 1.242696000000000023e+00 2.787059000000000175e+00 -2.538370000000000015e+00 4.704799999999999954e-02 -7.396460000000000257e-01 -9.023550000000000182e-01 1.163596000000000075e+00 1.476580000000000115e-01 -2.178637000000000157e+00 1.719414999999999916e+00 7.095500000000000418e-02 -2.642490000000000117e-01 9.377029999999999532e-01 -2.431477999999999806e+00 -7.788199999999999568e-01 -6.789429999999999632e-01 -6.652390000000000247e-01 -6.795930000000000026e-01 5.019309999999999938e+00 -1.606657999999999920e+00 2.668200000000000016e-01 -2.797536000000000023e+00 2.617888999999999911e+00 3.234897999999999829e+00 -4.834180000000000144e-01 -1.018880999999999926e+00 2.649670000000000081e-01 1.027484999999999982e+00 -8.610069999999999668e-01 8.722720000000000473e-01 -3.743189000000000100e+00 2.965079999999999938e-01 8.879839999999999955e-01 7.470100000000000351e-02 -1.038972000000000007e+00 1.743943999999999939e+00 -3.200299999999999812e-01 -1.716652999999999984e+00 -5.513155000000000250e+00 -9.114959999999999729e-01 2.997819999999999929e-01 5.202560000000000517e-01 2.931442999999999799e+00 1.200741999999999976e+00 1.148897000000000057e+00 -9.487849999999999895e-01 2.091254999999999864e+00 1.739125000000000032e+00 -5.420700000000000518e-01 9.463589999999999502e-01 -8.654490000000000238e-01 -1.437214999999999909e+00 -2.195610999999999979e+00 -3.070123999999999853e+00 2.496029999999999915e-01 -1.132476999999999956e+00 -2.291746999999999979e+00 -2.600540000000000074e-01 2.881406000000000134e+00 1.584268000000000010e+00 2.287859999999999894e-01 3.436141000000000112e+00 -9.790400000000000214e-01 -2.629586000000000201e+00 -1.260682999999999998e+00 -8.931890000000000107e-01 -3.720099999999999796e-02 -1.304899000000000031e+00 -1.119499000000000022e+00 -1.024402999999999953e+00 -5.591089999999999671e-01 1.404160000000000075e+00 -5.980910999999999866e+00 -1.020599999999999952e+00 1.242971999999999966e+00 3.366286999999999807e+00 -1.019085000000000019e+00 -9.056600000000000206e-01 -1.950620000000000021e+00 -2.980062999999999906e+00 -7.948299999999999810e-02 2.517443999999999793e+00 -1.777409999999999934e+00 2.518585999999999991e+00 3.176163999999999987e+00 6.433349999999999902e-01 6.293649999999999523e-01 -8.124399999999999678e-02 -2.290297999999999945e+00 -3.118786000000000058e+00 -1.527743999999999991e+00 -3.954610000000000070e-01 2.239899999999999947e-01 1.470129000000000019e+00 1.573259999999999936e-01 -4.762799999999999812e-01 -3.437108999999999970e+00 -5.496100000000000291e-02 5.661395999999999873e+00 7.515020000000000033e-01 -4.564380000000000104e-01 2.390327000000000091e+00 -3.191361999999999810e+00 -1.535268999999999995e+00 -2.592251000000000083e+00 9.047749999999999959e-01 3.762929000000000190e+00 1.511066000000000020e+00 -4.008999999999999786e-01 2.853064999999999962e+00 8.642539999999999667e-01 -2.944453999999999905e+00 -2.414753000000000149e+00 -1.800837999999999939e+00 -2.420431999999999917e+00 2.586669999999999803e+00 4.242119999999999780e-01 -1.169094999999999995e+00 1.781044000000000072e+00 2.473377999999999854e+00 -5.085056999999999938e+00 -1.077828000000000008e+00 -8.191680000000000073e-01 2.171960000000000002e-01 -5.977513000000000076e+00 2.512573999999999863e+00 2.713979999999999837e+00 1.433259999999999978e+00 4.359874999999999723e+00 -7.648200000000000554e-01 1.050268999999999897e+00 -1.690959999999999963e-01 -4.362380000000000146e-01 1.672495999999999983e+00 3.785580000000000056e-01 1.463619000000000003e+00 6.177310000000000301e-01 -4.680679999999999841e-01 4.710610000000000075e-01 -9.071879999999999944e-01 -3.047130000000000116e-01 2.189530000000000087e-01 4.876460000000000239e-01 2.018550999999999984e+00 -2.250582000000000082e+00 -5.521829999999999794e-01 -2.459899999999999934e-02 -1.634800000000000031e+00 -1.675173999999999941e+00 4.105369999999999853e-01 -2.394699000000000133e+00 1.423697999999999908e+00 -5.564000000000000196e-02 3.076636000000000148e+00