1.022430000000000005e-01 1.678425000000000056e+00 -5.949900000000000327e-02 -3.164811999999999959e+00 3.359518000000000004e+00 -1.867499999999999993e-01 -9.984159999999999702e-01 -4.742750000000000021e-01 4.691311999999999927e+00 2.674008000000000163e+00 5.860058000000000433e+00 -4.067675999999999625e+00 -1.861180000000000057e-01 -2.411909000000000081e+00 -3.946448000000000178e+00 -4.152243999999999602e+00 -5.297960000000000447e-01 -7.185960000000000125e-01 4.400180999999999898e+00 -2.895122999999999891e+00 -9.369110000000000493e-01 1.775960000000000039e-01 -3.007401999999999909e+00 -1.857386999999999899e+00 -4.594325000000000436e+00 6.875759999999999650e-01 -8.632819999999999938e-01 1.183280000000000026e-01 -3.609201999999999799e+00 -1.341385000000000050e+00 -1.590405999999999986e+00 -2.833416999999999852e+00 -2.828613999999999962e+00 2.217391999999999808e+00 -5.240095000000000169e+00 4.596553000000000111e+00 -1.343215999999999966e+00 2.007385000000000197e+00 -1.791109999999999980e+00 -1.743436999999999903e+00 2.579768000000000061e+00 -2.217363000000000195e+00 -1.929049999999999931e-01 7.101239999999999775e-01 -3.773009999999999975e-01 -3.074975999999999932e+00 -3.071429000000000187e+00 5.150540000000000118e-01 -1.380400999999999989e+00 -2.994860000000000078e+00 1.881693000000000060e+00 -6.329019999999999646e-01 2.518879000000000090e+00 -3.965489999999999848e-01 -4.338771999999999629e+00 3.128969999999999807e-01 -1.766906000000000088e+00 -2.977523999999999837e+00 -9.359389999999999654e-01 5.179730000000000167e-01 2.439815999999999985e+00 2.977587000000000206e+00 -6.410090000000000510e-01 2.426892000000000049e+00 1.580554000000000014e+00 3.614901999999999838e+00 -3.836879999999999735e-01 -1.425464999999999982e+00 -4.111358000000000068e+00 5.504450000000000287e+00 -4.579570000000000030e-01 -2.242109999999999936e-01 -1.164455000000000018e+00 1.825833000000000039e+00 1.498950000000000005e-01 2.623980000000000201e-01 6.559009999999999563e-01 -5.876839999999999842e-01 -4.395659000000000205e+00 1.862041000000000057e+00 -8.516610000000000014e-01 5.980910000000000393e-01 4.496767000000000181e+00 1.675409999999999955e-01 4.963070000000000093e+00 2.977142000000000177e+00 -2.779539999999999789e-01 -5.583590000000000497e-01 -2.398255999999999943e+00 5.299660000000000482e-01 -1.555539999999999923e+00 -2.387350000000000083e+00 -1.602970999999999924e+00 1.392200000000000035e-02 7.752830000000000554e-01 -1.594180000000000041e-01 2.613590000000000080e-01 -5.165579999999999616e-01 1.354567999999999994e+00 2.054291999999999785e+00 2.855523999999999951e+00 2.302808999999999884e+00 -5.402510000000000367e-01 1.805916999999999994e+00 4.995499999999999940e-01 4.907917999999999559e+00 3.820275999999999783e+00 2.336285999999999863e+00 2.152734999999999843e+00 -1.585673000000000110e+00 1.423079999999999901e+00 1.219762000000000013e+00 5.492639999999999745e-01 -2.768120000000000025e-01 -1.489270000000000094e+00 2.147059000000000051e+00 6.167890000000000317e-01 -3.565099999999999936e-01 4.982420000000000182e-01 7.671100000000000141e-02 -2.712483000000000199e+00 -3.067929999999999824e-01 -1.403837999999999919e+00 3.342589999999999950e+00 -3.364520000000000177e+00 1.744610000000000050e-01 6.163499999999999535e-01 -8.472490000000000299e-01 -7.234140000000000015e-01 3.767488999999999866e+00 -5.606355999999999895e+00 7.464469999999999716e-01 1.347666999999999948e+00 7.543370000000000353e-01 -6.264999999999999736e-03 1.608751000000000042e+00 -5.070430000000000215e-01 -2.073615000000000208e+00 -2.037151000000000156e+00 -9.234059999999999491e-01 -1.565587000000000062e+00 -1.843844999999999956e+00 -4.184470000000000134e-01 -7.773280000000000189e-01 -1.629574999999999996e+00 2.561233000000000093e+00 -1.367569999999999952e+00 3.282223000000000113e+00 2.157934000000000019e+00 -4.168290000000000051e-01 -4.203313999999999773e+00 2.258030000000000037e-01 3.318728000000000122e+00 2.407284999999999897e+00 2.323870000000000102e-01 -3.515073000000000114e+00 -7.283800000000000274e-01 -4.890499999999999708e-02 7.264089999999999714e-01 -3.500090000000000146e-01 -3.357510000000000217e-01 -5.422940000000000538e-01 1.852368000000000015e+00 8.369539999999999758e-01 -1.181095000000000006e+00 -8.948450000000000015e-01 1.718941999999999970e+00 2.592963999999999825e+00 -2.083285000000000053e+00 -1.405026000000000108e+00 3.539630000000000276e-01 2.270935000000000148e+00 -1.675716999999999901e+00 9.972910000000000386e-01 1.528100999999999932e+00 5.780650000000000510e-01 7.431870000000000420e-01 2.056007999999999836e+00 -1.740669999999999995e-01 2.921669000000000072e+00 4.134959999999999747e-01 7.527100000000000457e-02 -3.989949999999999886e-01 1.199999999999999956e+00 -6.909619999999999651e-01 2.193049999999999944e+00 -6.794489999999999696e-01 -7.453189999999999538e-01 7.929450000000000109e-01 6.680059999999999887e-01 1.057560999999999973e+00 4.524469999999999881e-01 4.377019999999999800e-01 -6.908490000000000464e-01 -2.864567999999999781e+00 -1.571809000000000012e+00 -1.323288000000000020e+00 1.448228999999999989e+00 3.781207999999999902e+00 -1.702377999999999947e+00 8.002669999999999506e-01 -1.783071000000000073e+00 3.194547000000000025e+00 6.163020000000000165e-01 2.802201999999999860e+00 3.657815999999999956e+00 -3.088013999999999815e+00 -2.132861999999999814e+00 -1.597515000000000018e+00 -1.170533000000000046e+00 4.360149999999999859e-01 -4.616390000000000216e-01 -1.597639000000000031e+00 -1.845207000000000042e+00 -6.417239999999999611e-01 -2.965634999999999799e+00 8.503549999999999720e-01 -3.214831999999999912e+00 -4.755300000000000082e-01 -3.613129999999999953e-01 1.200750000000000012e-01 9.755690000000000195e-01 9.408539999999999681e-01 1.956229999999999913e+00 1.808300000000000018e+00 -2.697459999999999858e-01 -4.132279999999999842e-01 2.278020000000000156e+00 1.484240999999999921e+00 -2.398230000000000084e-01 -4.455200000000000271e-01 2.564960000000000018e-01 8.364620000000000388e-01 1.047539999999999999e-01 -8.247929999999999984e-01 -2.514908000000000143e+00 3.297264000000000195e+00 -4.080009999999999692e+00 1.554361000000000104e+00 2.570649999999999880e-01 -1.078486000000000056e+00 -2.977710000000000079e-01 -1.650932000000000066e+00 -1.475087999999999955e+00 -5.422100999999999615e+00 2.583835000000000104e+00 1.291814999999999936e+00 1.523757000000000028e+00 -1.350125999999999937e+00 1.101849999999999996e+00 -6.116909999999999847e-01 -1.124740999999999991e+00 1.341823999999999906e+00 1.247802999999999995e+00 9.112010000000000387e-01 -3.723422999999999927e+00 -1.078677000000000108e+00 4.259186999999999834e+00 6.260400000000000686e-02 5.669189999999999507e-01 -2.069000000000000006e-02 4.450589999999999824e-01 -8.887159999999999505e-01 -1.632968999999999893e+00 -1.516437000000000035e+00 -2.627670999999999868e+00 -6.590759999999999952e-01 5.495889999999999942e-01 1.376692999999999945e+00 -2.332220000000000126e-01 6.906120000000000037e-01 -5.660420000000000451e-01 6.944160000000000332e-01 -1.320054999999999978e+00 3.422191999999999901e+00 2.144511000000000056e+00 4.979219999999999757e-01 3.084699999999999942e-02 1.278861999999999943e+00 1.327520000000000089e-01 -1.110889999999999933e-01 5.939290000000000402e-01
2.292145999999999795e+00 5.834420000000000162e-01 3.716320000000000179e-01 1.331811999999999996e+00 2.055766999999999900e+00 -1.019721000000000100e+00 2.575479999999999992e-01 2.189893000000000089e+00 1.686833000000000027e+00 2.186968999999999941e+00 -6.355429999999999691e-01 -4.357089000000000212e+00 -1.890630000000000088e-01 -3.697520000000000251e-01 1.431211999999999929e+00 -1.098332000000000086e+00 -5.612979999999999636e-01 -2.938937000000000133e+00 -2.458636999999999961e+00 7.912599999999999634e-01 2.338187000000000015e+00 -1.329288000000000025e+00 -7.819009999999999572e-01 9.594350000000000378e-01 -6.113802999999999876e+00 -7.068299999999999583e-01 -2.953291000000000111e+00 1.979440000000000088e+00 -1.148512999999999895e+00 3.511378999999999806e+00 9.661220000000000363e-01 -1.368851999999999958e+00 -2.516685999999999979e+00 4.926652999999999949e+00 5.141379999999999839e-01 1.417594000000000021e+00 -1.344410000000000049e-01 1.920469999999999955e-01 -1.512116999999999933e+00 -2.475811999999999902e+00 6.928800000000000514e-01 -4.701780000000000292e+00 1.981621999999999995e+00 -3.736838000000000104e+00 -1.397057999999999911e+00 -2.525720000000000187e-01 -3.455302000000000096e+00 -5.578269999999999840e+00 -1.145277000000000100e+00 -4.346360000000000223e-01 2.447621999999999964e+00 1.348590000000000066e-01 2.578126000000000140e+00 -1.965511000000000008e+00 -1.018831000000000042e+00 8.401210000000000067e-01 1.908692999999999973e+00 -2.302011999999999947e+00 9.898959999999999981e-01 -2.024182999999999844e+00 9.575860000000000483e-01 -5.288840000000000208e-01 1.688608000000000109e+00 2.240599000000000007e+00 7.228480000000000461e-01 2.640930000000000000e+00 1.439356999999999998e+00 -6.567920000000000424e-01 2.871703000000000117e+00 1.707603999999999900e+00 -1.662306000000000061e+00 -1.453594000000000053e+00 -4.987791999999999781e+00 1.586349999999999982e-01 9.215769999999999795e-01 -7.865809999999999746e-01 -4.294890000000000096e-01 -1.674828999999999901e+00 -9.739419999999999744e-01 -2.024261999999999784e+00 2.994346999999999870e+00 -4.716275000000000439e+00 2.553075000000000205e+00 2.995300000000000046e-02 -3.551515999999999895e+00 1.352675000000000072e+00 7.983989999999999698e-01 7.322786999999999935e+00 2.716069999999999873e-01 4.252724999999999866e+00 -3.505559999999999787e-01 6.624579999999999913e-01 -1.670846999999999971e+00 3.681966000000000072e+00 -1.363691999999999904e+00 3.818032000000000092e+00 -2.347500999999999838e+00 2.132228000000000012e+00 -2.968728000000000034e+00 3.956525000000000070e+00 3.158669000000000171e+00 3.434626000000000179e+00 -9.496409999999999574e-01 -8.965579999999999661e-01 -1.205999999999999954e-02 9.617830000000000545e-01 1.549125000000000085e+00 -2.276670000000000083e-01 -2.323795000000000055e+00 4.918190000000000062e-01 -1.402406999999999959e+00 -1.746958000000000011e+00 -2.686757000000000062e+00 3.060767999999999933e+00 2.914603000000000055e+00 -7.361039999999999806e-01 2.762999999999999831e-02 4.817270000000000163e-01 1.918449999999999878e-01 -1.732899999999999996e-01 -1.012799999999999985e-02 -9.543719999999999981e-01 -1.437494999999999967e+00 4.861000999999999905e+00 -1.439316999999999958e+00 3.715949999999999864e+00 -1.327242000000000033e+00 -8.251730000000000453e-01 -1.901349999999999985e-01 -1.375755000000000061e+00 -2.552265999999999924e+00 4.296999999999999605e-03 3.578950000000000187e-01 7.035219999999999807e-01 9.464420000000000055e-01 -1.943449999999999900e-01 -2.414222999999999786e+00 -1.404446000000000083e+00 -2.438450000000000062e-01 1.399875999999999898e+00 1.674439000000000011e+00 -3.365400000000000336e-02 -5.300080000000000346e-01 -9.773900000000000643e-02 7.138120000000000021e-01 1.861194000000000015e+00 -3.370032999999999834e+00 -2.929309999999999969e-01 1.616535999999999973e+00 -4.151270000000000238e-01 1.330796000000000090e+00 5.270709999999999562e-01 4.367349999999999843e-01 8.479609999999999648e-01 1.341760000000000064e+00 -1.776032000000000055e+00 2.706758000000000219e+00 -3.676299999999999707e-02 2.234375000000000000e+00 1.186368000000000089e+00 7.130309999999999704e-01 1.290070000000000106e-01 -9.714979999999999727e-01 8.135689999999999866e-01 1.160064999999999902e+00 -5.284410000000000496e-01 2.944971999999999923e+00 1.257498000000000005e+00 1.548257999999999912e+00 -1.292888999999999955e+00 -1.523603999999999958e+00 -1.610129999999999895e-01 -3.458829000000000153e+00 -1.606386000000000092e+00 -5.366229999999999611e-01 -3.018759000000000192e+00 -1.189442000000000110e+00 -2.162769999999999970e-01 1.593439000000000050e+00 -3.719689999999999941e-01 -4.902908000000000044e+00 2.198789999999999911e-01 -1.943997999999999893e+00 -4.906409999999999938e-01 -1.128649999999999931e+00 -8.043949999999999712e-01 7.396390000000000464e-01 7.857060000000000155e-01 5.082449999999999468e-01 -2.051769999999999872e+00 -3.446988000000000163e+00 -1.237020000000000008e+00 1.253786999999999985e+00 3.141424999999999912e+00 2.078994999999999926e+00 -1.492205999999999921e+00 9.247300000000000519e-01 -1.856815000000000104e+00 1.167462999999999917e+00 1.168099999999999916e+00 -1.151388999999999996e+00 2.812619000000000202e+00 1.386773000000000033e+00 6.486910000000000176e-01 -1.503006999999999982e+00 4.976400000000000268e-01 6.937619999999999898e-01 1.620595999999999925e+00 -2.248361000000000054e+00 2.555902999999999814e+00 1.615477999999999970e+00 -5.048370000000000246e+00 -4.108109999999999817e-01 4.263890000000000180e-01 -2.800305999999999962e+00 2.392075999999999869e+00 -1.310600000000000098e-01 5.412310000000000176e-01 -1.330199999999999994e-01 -3.937289999999999957e-01 5.177049999999999708e-01 1.057762000000000091e+00 -1.454800000000000093e+00 2.092670000000000086e-01 1.110756999999999994e+00 -1.240234999999999976e+00 1.561458000000000013e+00 -8.042399999999999549e-01 -2.609770000000000145e-01 -4.263879999999999892e-01 1.584147999999999890e+00 4.614320000000000088e-01 9.605099999999999749e-01 -1.392724000000000073e+00 -3.018979999999999997e-01 1.244545999999999930e+00 -5.010569999999999746e-01 1.471038999999999985e+00 1.345404999999999962e+00 2.311277000000000026e+00 -9.895420000000000327e-01 -3.311472999999999889e+00 -1.141720999999999986e+00 -2.378190000000000026e-01 2.000909000000000049e+00 1.622997999999999941e+00 4.908333999999999975e+00 -1.999103999999999992e+00 -2.321120000000000072e+00 -5.535112999999999950e+00 5.457296000000000369e+00 -6.618290000000000006e-01 -1.121418000000000026e+00 2.249538999999999955e+00 6.483029999999999626e-01 -2.575778999999999819e+00 1.510996999999999924e+00 -4.085892000000000301e+00 -1.562183000000000099e+00 -5.513740000000000308e-01 -5.552620000000000333e-01 -2.665103999999999917e+00 1.452696999999999905e+00 -1.661960000000000104e-01 3.092064000000000146e+00 -6.208550000000000457e-01 4.131287000000000376e+00 -1.111286999999999914e+00 -7.935729999999999729e-01 -1.589723999999999915e+00 6.634849999999999914e-01 1.264459999999999917e+00 -1.419890000000000041e-01 1.926487000000000060e+00 -1.982088000000000072e+00 -1.173715000000000064e+00 -1.020726999999999940e+00 5.034220000000000361e-01 -1.342235999999999985e+00 7.532109999999999639e-01 -2.066783000000000037e+00 1.830724999999999936e+00
-1.283390000000000031e+00 2.094777999999999807e+00 9.356899999999999940e-02 2.572599999999999887e-02 6.801549999999999541e-01 7.780399999999999816e-02 -1.724221000000000004e+00 1.067345999999999906e+00 -4.567990000000000106e-01 -2.314057000000000031e+00 -5.781039999999999512e-01 -8.805349999999999566e-01 1.237840000000000051e-01 3.844160000000000021e+00 3.670846000000000053e+00 -2.454679000000000055e+00 1.769687000000000010e+00 -1.269682999999999895e+00 -9.918100000000000527e-02 -1.060108999999999968e+00 -1.241848000000000063e+00 5.478110000000000479e-01 -6.646940000000000071e-01 2.008790000000000020e-01 4.099559999999999871e-01 1.454612000000000016e+00 7.169640000000000457e-01 1.082767000000000035e+00 2.439001000000000197e+00 -2.427042999999999839e+00 3.479729999999999768e-01 -4.906269999999999798e-01 6.465870000000000228e-01 1.833603000000000094e+00 2.128951999999999956e+00 -2.843672999999999895e+00 -1.181275999999999993e+00 -1.398080999999999907e+00 -9.204189999999999872e-01 -9.462450000000000028e-01 4.838569999999999816e-01 -2.591174999999999784e+00 7.480299999999999727e-01 -1.042949999999999988e-01 8.253000000000000336e-01 -3.600050000000000194e-01 2.590304999999999858e+00 2.695400000000000018e-01 3.208082000000000100e+00 -1.118813000000000057e+00 -4.816849999999999743e-01 3.161919999999999842e+00 -1.035665999999999976e+00 -1.233695999999999904e+00 1.489014999999999977e+00 -1.346924000000000010e+00 -4.885249999999999870e-01 3.486788999999999916e+00 3.225538999999999934e+00 1.212300000000000010e-02 -5.524529999999999719e-01 1.007409999999999972e-01 -9.683819999999999650e-01 -1.244407999999999959e+00 -6.231389999999999985e-01 1.700482999999999967e+00 2.057220000000000049e+00 -1.722396000000000038e+00 -3.777057000000000109e+00 5.774019999999999708e-01 -4.240218999999999738e+00 -3.316078000000000081e+00 1.463335000000000052e+00 7.675499999999999545e-01 -2.885343000000000213e+00 1.023131000000000013e+00 -1.800370000000000026e-01 -1.696960000000000135e-01 -6.445060000000000233e-01 5.321500000000000119e-01 1.321112000000000064e+00 1.728971999999999953e+00 -7.828169999999999851e-01 -1.510043000000000024e+00 -1.133050000000000029e-01 2.332708999999999921e+00 -2.117437999999999931e+00 -2.454569999999999919e+00 1.051476000000000077e+00 3.009806000000000203e+00 -8.037590000000000012e-01 2.126606000000000218e+00 -1.697921999999999931e+00 -1.078094000000000108e+00 -3.246678999999999871e+00 4.363482999999999556e+00 1.764475999999999933e+00 1.351682999999999968e+00 1.542749999999999955e-01 -1.117609999999999992e-01 -1.405154999999999932e+00 1.624513000000000096e+00 -2.760920000000000041e+00 1.496774999999999967e+00 1.205781999999999909e+00 -7.978169999999999984e-01 -1.953589000000000020e+00 -4.242750000000000132e-01 1.257878999999999969e+00 -2.383052999999999866e+00 -2.236407999999999952e+00 8.475000000000000311e-01 -5.459279999999999688e-01 1.047166999999999959e+00 -2.868200000000000194e-01 8.392990000000000173e-01 -4.295229999999999881e-01 2.008627999999999858e+00 -1.130748000000000086e+00 3.197273000000000032e+00 -1.299952999999999914e+00 -2.530699999999999963e-02 -1.331955999999999918e+00 4.184120000000000061e-01 4.994999999999999996e-01 -7.635610000000000452e-01 9.944640000000000146e-01 1.147348000000000035e+00 -9.169089999999999741e-01 1.876162000000000107e+00 -6.938860000000000028e-01 -3.296603000000000172e+00 -1.709772000000000070e+00 -3.901422999999999863e+00 4.730550000000000033e-01 3.231964000000000059e+00 2.999133000000000049e+00 -8.294500000000000206e-01 -1.221225999999999923e+00 4.419060000000000210e-01 2.550425000000000164e+00 3.625240000000000129e-01 3.652667000000000108e+00 4.234141000000000155e+00 6.408329999999999860e-01 -1.157302000000000053e+00 -1.862314999999999943e+00 8.712959999999999594e-01 2.572099999999999942e-01 9.276149999999999674e-01 3.408474000000000004e+00 -6.200870000000000548e-01 2.022232999999999947e+00 -1.298310000000000020e-01 7.703999999999999911e-03 -1.386489999999999945e-01 -1.602881000000000000e+00 -2.700450000000000017e+00 9.160400000000000487e-02 3.157399999999999790e-02 1.896449000000000051e+00 1.343812999999999924e+00 3.701389999999999958e-01 2.935958999999999985e+00 1.462638000000000105e+00 1.037373000000000101e+00 -1.865299000000000040e+00 -6.762989999999999835e-01 -1.568080000000000029e-01 8.912970000000000059e-01 2.435759999999999870e-01 1.068564000000000069e+00 2.459560000000000080e-01 2.636458999999999886e+00 -3.931819999999999760e-01 -1.678020000000000067e-01 -2.571629999999999860e+00 -2.177674000000000110e+00 7.670360000000000511e-01 4.428070000000000062e-01 -1.197646999999999906e+00 -4.152955000000000396e+00 -2.815050000000000052e-01 1.756021999999999972e+00 -4.901400000000000201e-01 -6.058820000000000316e-01 -2.090682000000000151e+00 -1.412452999999999959e+00 9.824089999999999767e-01 7.840930000000000399e-01 7.102910000000000057e-01 -1.012524999999999897e+00 -1.017101999999999951e+00 2.535499999999999976e-01 6.126890000000000391e-01 -6.313220000000000498e-01 -8.384030000000000094e-01 5.349530000000000118e-01 -1.263011000000000106e+00 -4.633689999999999753e-01 2.033157000000000103e+00 -3.428395000000000081e+00 3.972850000000000215e+00 2.579504000000000019e+00 -4.519399999999999806e-02 3.141952999999999996e+00 2.321111999999999842e+00 -8.685969999999999525e-01 5.816400000000000042e-02 9.173339999999999828e-01 -1.055023999999999962e+00 2.609642000000000017e+00 -7.314300000000000246e-01 1.708180000000000032e+00 -4.163140000000000174e-01 1.374809999999999921e-01 1.761770000000000003e-01 -2.074282000000000181e+00 1.433729999999999949e+00 8.219060000000000255e-01 -1.782246999999999915e+00 -1.876160000000000050e-01 -9.678350000000000009e-01 1.729592999999999936e+00 -1.959408000000000039e+00 2.983197000000000099e+00 -7.410120000000000040e-01 -1.810003000000000029e+00 8.282040000000000513e-01 -1.884484999999999966e+00 -1.101768000000000081e+00 -1.256294999999999940e+00 -3.081659999999999955e-01 -2.594589999999999952e-01 -1.647421999999999942e+00 7.829209999999999781e-01 1.895850000000000035e+00 2.176505000000000134e+00 1.260850999999999944e+00 1.171421999999999963e+00 1.527846999999999955e+00 -4.276693999999999996e+00 -4.021950000000000358e+00 -3.220365000000000144e+00 -2.856397999999999993e+00 1.880052000000000056e+00 -7.066799999999999748e-01 1.590789999999999926e+00 -6.443440000000000278e-01 -4.072904000000000302e+00 -1.176066999999999974e+00 3.042041000000000217e+00 -1.289740000000000053e-01 -1.358840000000000048e-01 -2.607959999999999723e-01 8.303169999999999717e-01 -1.858144999999999936e+00 -1.914126999999999912e+00 -6.889000000000000158e-03 -1.406000000000000028e-01 1.513414999999999955e+00 -1.473619999999999930e+00 1.785644999999999927e+00 -1.957432000000000061e+00 -9.315459999999999852e-01 7.355059999999999931e-01 1.169890000000000096e+00 8.961700000000000221e-02 -8.145029999999999770e-01 5.247619999999999507e-01 1.110266999999999893e+00 3.846899999999999764e-01 -1.753000000000000001e-03 -2.300497000000000014e+00 -2.326632000000000033e+00 -1.715956000000000037e+00 1.469648000000000065e+00 -1.558858999999999995e+00 -1.006834000000000007e+00 -1.554959999999999898e+00 -2.857529999999999792e-01 2.911732000000000209e+00
-2.045762999999999998e+00 1.018791000000000002e+00 1.715230000000000032e+00 -1.328418000000000099e+00 -6.308470000000000466e-01 1.779201000000000032e+00 -4.721520000000000161e-01 -1.651659999999999906e+00 2.726885999999999921e+00 7.156460000000000043e-01 -7.523020000000000262e-01 -2.955900000000000194e+00 1.536399999999999919e-02 3.042386000000000035e+00 -3.582593999999999834e+00 2.811173999999999840e+00 -1.870907000000000098e+00 -2.679746000000000183e+00 2.479030999999999985e+00 -9.953099999999999448e-02 -1.369483999999999924e+00 3.688022999999999829e+00 1.906716000000000077e+00 -2.065237999999999907e+00 7.870819999999999483e-01 -9.446280000000000232e-01 -2.578418999999999794e+00 -3.397130999999999901e+00 5.004929999999999657e-01 1.458725000000000049e+00 -1.876443000000000083e+00 -1.483397000000000077e+00 1.398773000000000044e+00 -2.968634999999999913e+00 -4.002875000000000405e+00 -3.641744999999999788e+00 4.997237000000000151e+00 -3.842931000000000097e+00 -2.432523000000000213e+00 -1.818343999999999960e+00 1.417704999999999993e+00 -3.531946000000000030e+00 1.670781000000000072e+00 -2.053530999999999995e+00 -1.574014999999999942e+00 -4.460644000000000275e+00 -1.567285999999999957e+00 -8.459360000000000213e-01 -6.747199999999999864e-01 -1.029547999999999908e+00 -2.962690000000000046e-01 -2.866659999999999764e-01 6.527739999999999654e-01 -5.685369999999999591e-01 3.303584999999999994e+00 -7.544380000000000530e-01 2.536399999999999988e+00 -3.633227000000000206e+00 -4.740054999999999907e+00 -1.661222999999999894e+00 -1.483795999999999893e+00 8.638249999999999540e-01 -3.448910000000000142e+00 -1.228765000000000107e+00 2.789241000000000081e+00 -1.755619000000000041e+00 -1.571010000000000018e+00 -1.388638000000000039e+00 -1.742769999999999930e+00 -2.978909999999999947e+00 1.268086999999999964e+00 1.222763999999999962e+00 1.258702999999999905e+00 -2.964033999999999835e+00 -2.004284000000000177e+00 -1.388011000000000106e+00 -1.085928000000000004e+00 -2.812450000000000228e-01 -1.255918000000000090e+00 -3.348549000000000220e+00 1.168733000000000022e+00 1.897796999999999956e+00 1.813414999999999999e+00 1.238658999999999955e+00 2.210487000000000091e+00 -1.483185999999999893e+00 -1.391996999999999929e+00 -5.577999999999999625e-01 -5.598140000000000338e-01 9.010439999999999561e-01 2.885630000000000139e-01 -2.509815999999999825e+00 -1.865880000000000039e-01 -1.631086000000000036e+00 1.411477000000000093e+00 -2.907782000000000089e+00 -3.985580000000000234e-01 -8.914210000000000189e-01 -1.216436999999999991e+00 5.937900000000000400e-01 -1.170617000000000019e+00 -3.641897000000000162e+00 4.885434000000000054e+00 -4.655549999999999966e-01 3.430924999999999780e+00 1.143277000000000099e+00 1.377458000000000071e+00 6.067660000000000275e-01 8.310410000000000297e-01 2.190237000000000211e+00 -3.773620000000000196e+00 -8.782579999999999831e-01 7.627359999999999696e-01 -9.383770000000000167e-01 6.424809999999999688e-01 1.237349000000000032e+00 -1.837301999999999991e+00 1.370910999999999991e+00 5.481393999999999878e+00 4.116708000000000034e+00 -2.039090000000000069e-01 1.569498000000000060e+00 -5.863399999999999723e-01 1.220042999999999989e+00 -2.802204000000000139e+00 -2.065849999999999909e-01 9.346400000000000263e-01 2.400470000000000104e-01 6.698309999999999542e-01 -5.744519999999999627e-01 -1.053566000000000003e+00 -1.788602000000000025e+00 -1.285852999999999913e+00 1.846689000000000025e+00 4.214500000000000191e-02 -1.105804999999999927e+00 9.317450000000000454e-01 7.635070000000000467e-01 2.569040000000000212e-01 -6.665060000000000429e-01 2.323600000000000110e-01 1.093131999999999993e+00 -2.844247999999999887e+00 1.162760000000000044e-01 -9.851269999999999749e-01 -2.523608999999999991e+00 6.085049999999999626e-01 -6.650040000000000395e-01 -1.019849000000000006e+00 3.127966999999999942e+00 -2.340726000000000084e+00 -5.653369999999999784e-01 -1.803061000000000025e+00 2.136092000000000102e+00 -1.077023000000000064e+00 1.284923999999999955e+00 -3.576219999999999954e-01 5.365210000000000257e-01 6.271860000000000213e-01 1.039889000000000063e+00 1.377343999999999902e+00 -1.006216999999999917e+00 -1.524380000000000068e+00 1.310375000000000068e+00 -1.927689999999999959e-01 -2.944004000000000065e+00 1.080683999999999978e+00 -1.523740000000000094e-01 2.906290999999999958e+00 -3.148827999999999960e+00 5.465665999999999691e+00 -1.409801000000000082e+00 2.957640000000000269e-01 -2.295548000000000144e+00 -3.365330000000000266e-01 -4.970280000000000253e-01 1.759449999999999903e-01 1.232290000000000108e+00 2.740002000000000049e+00 -2.954865999999999993e+00 -2.553110000000000102e-01 1.121523000000000048e+00 1.598742000000000107e+00 1.627763000000000071e+00 -7.473060000000000258e-01 -1.577250000000000041e-01 -2.550459999999999949e-01 1.080219000000000040e+00 2.364857000000000209e+00 -2.246351999999999904e+00 1.950185000000000057e+00 -9.124500000000000666e-02 -2.138602999999999810e+00 -3.222433999999999799e+00 8.379569999999999519e-01 2.918709999999999916e+00 2.184336000000000055e+00 -2.175402000000000058e+00 4.448700999999999794e+00 9.632199999999999651e-01 1.313671000000000033e+00 -1.493190000000000017e+00 -2.740962000000000121e+00 -4.154200000000000115e-01 5.473959999999999937e-01 -1.790583999999999953e+00 1.450064999999999937e+00 1.876154000000000099e+00 -1.089010999999999951e+00 1.455405000000000060e+00 -2.005187999999999970e+00 4.863394999999999690e+00 1.384459000000000106e+00 2.172111000000000125e+00 2.106014000000000053e+00 1.259851999999999972e+00 1.387329999999999952e-01 1.389213999999999949e+00 3.205474999999999852e+00 1.444209999999999994e+00 1.706000000000000016e-01 -1.099304999999999977e+00 2.536776999999999838e+00 2.594437999999999800e+00 9.228499999999999481e-01 -1.955524000000000040e+00 -7.333619999999999584e-01 6.329590000000000494e-01 1.518204000000000109e+00 1.183753999999999973e+00 -4.481660000000000088e-01 5.786170000000000480e-01 3.500369999999999870e-01 1.319099999999999960e-02 -2.548190000000000177e-01 5.258500000000000396e-01 -2.142709999999999892e-01 1.958879999999999955e+00 1.398889000000000049e+00 3.967519999999999936e-01 1.461470000000000047e+00 3.261556000000000122e+00 2.714059000000000221e+00 -2.554130000000000011e-01 -1.070534000000000097e+00 7.653290000000000370e-01 9.933819999999999872e-01 4.196719999999999895e-01 7.241819999999999924e-01 -1.202309999999999990e+00 -7.597500000000000087e-02 3.009562999999999988e+00 -1.796288000000000107e+00 1.586257999999999946e+00 4.750249999999999750e-01 -1.569777999999999896e+00 -2.912589999999999901e-01 -2.778539999999999899e-01 1.423469000000000095e+00 4.144619999999999971e-01 4.277839999999999976e-01 -4.097310000000000119e-01 -1.881680000000000019e+00 4.192199999999999815e-01 -1.133836999999999984e+00 7.164920000000000178e-01 -1.516267000000000031e+00 -2.056859000000000215e+00 3.843460000000000210e-01 6.137949999999999795e-01 1.991970000000000129e-01 -1.212773000000000101e+00 8.306829999999999492e-01 9.323360000000000536e-01 -1.091679000000000066e+00 3.734731000000000023e+00 -3.555353000000000208e+00 3.940888999999999864e+00 2.439636000000000138e+00 -5.347199999999999731e-01 1.169149999999999912e+00 1.887054999999999927e+00