1.033315786900000077e+01 0.000000000000000000e+00 0.000000000000000000e+00 7.454020999999999911e-03 1.043998203299999972e+01 0.000000000000000000e+00 -1.789591699000000036e+00 -1.210281099999999978e-02 1.055322562799999986e+01
1.051195456499999992e+01 0.000000000000000000e+00 0.000000000000000000e+00 1.304803999999999903e-03 1.061705236999999968e+01 0.000000000000000000e+00 -1.829887121999999922e+00 -9.323589999999999656e-03 1.072580796499999956e+01
1.051666023499999980e+01 0.000000000000000000e+00 0.000000000000000000e+00 7.586393999999999777e-03 1.062538144600000045e+01 0.000000000000000000e+00 -1.821372333000000010e+00 -1.231774000000000063e-02 1.074063608800000047e+01
1.023685504000000002e+01 0.000000000000000000e+00 0.000000000000000000e+00 7.384550999999999615e-03 1.034268362499999938e+01 0.000000000000000000e+00 -1.772913085999999971e+00 -1.199001599999999917e-02 1.045487181400000054e+01
1.038837767000000056e+01 0.000000000000000000e+00 0.000000000000000000e+00 1.289465000000000056e-03 1.049223996199999931e+01 0.000000000000000000e+00 -1.808375255000000070e+00 -9.213983000000000242e-03 1.059971704300000006e+01
1.038381802500000006e+01 0.000000000000000000e+00 0.000000000000000000e+00 7.490565000000000244e-03 1.049116591399999976e+01 0.000000000000000000e+00 -1.798365492999999926e+00 -1.216214699999999989e-02 1.060496470600000052e+01
1.033067575399999960e+01 0.000000000000000000e+00 0.000000000000000000e+00 7.452229999999999792e-03 1.043747425799999995e+01 0.000000000000000000e+00 -1.789161822999999929e+00 -1.209990399999999987e-02 1.055069065100000003e+01
1.043458102299999979e+01 0.000000000000000000e+00 0.000000000000000000e+00 7.527184000000000132e-03 1.054245369899999929e+01 0.000000000000000000e+00 -1.807157096999999935e+00 -1.222160400000000050e-02 1.065680881499999977e+01
1.034215931700000013e+01 0.000000000000000000e+00 0.000000000000000000e+00 7.460513999999999687e-03 1.044907653799999991e+01 0.000000000000000000e+00 -1.791150653000000093e+00 -1.211335399999999979e-02 1.056241878199999995e+01
1.054948122999999960e+01 0.000000000000000000e+00 0.000000000000000000e+00 7.610070000000000029e-03 1.065854174500000084e+01 0.000000000000000000e+00 -1.827056575999999932e+00 -1.235618200000000028e-02 1.077415608099999922e+01
1.029408483399999952e+01 0.000000000000000000e+00 0.000000000000000000e+00 1.277761000000000088e-03 1.039700439199999948e+01 0.000000000000000000e+00 -1.791961061999999938e+00 -9.130350000000000618e-03 1.050350592999999932e+01
1.047931846500000042e+01 0.000000000000000000e+00 0.000000000000000000e+00 7.559455999999999988e-03 1.058765363600000065e+01 0.000000000000000000e+00 -1.814905141000000111e+00 -1.227400300000000034e-02 1.070249904099999938e+01
1.021152656299999961e+01 0.000000000000000000e+00 0.000000000000000000e+00 7.366280000000000223e-03 1.031709330199999997e+01 0.000000000000000000e+00 -1.768526465999999964e+00 -1.196034900000000033e-02 1.042900391000000049e+01
1.026862208400000043e+01 0.000000000000000000e+00 0.000000000000000000e+00 1.274600000000000082e-03 1.037128706800000089e+01 0.000000000000000000e+00 -1.787528588999999890e+00 -9.107765999999999779e-03 1.047752516999999983e+01
1.030727551500000061e+01 0.000000000000000000e+00 0.000000000000000000e+00 7.435350000000000292e-03 1.041383210799999937e+01 0.000000000000000000e+00 -1.785109153999999920e+00 -1.207249600000000027e-02 1.052679205199999934e+01
1.048010111500000008e+01 0.000000000000000000e+00 0.000000000000000000e+00 7.560021000000000102e-03 1.058844437800000016e+01 0.000000000000000000e+00 -1.815040686999999986e+00 -1.227491999999999993e-02 1.070329835999999979e+01
1.024416553800000074e+01 0.000000000000000000e+00 0.000000000000000000e+00 7.389823999999999699e-03 1.035006969900000051e+01 0.000000000000000000e+00 -1.774179184999999936e+00 -1.199857799999999933e-02 1.046233800599999952e+01
1.047009918300000031e+01 0.000000000000000000e+00 0.000000000000000000e+00 7.552805999999999582e-03 1.057833904599999997e+01 0.000000000000000000e+00 -1.813308460000000011e+00 -1.226320499999999925e-02 1.069308341400000018e+01
1.044243142100000021e+01 0.000000000000000000e+00 0.000000000000000000e+00 1.296173999999999981e-03 1.054683413799999947e+01 0.000000000000000000e+00 -1.817784757000000084e+00 -9.261926000000000186e-03 1.065487045399999921e+01
1.034906645200000064e+01 0.000000000000000000e+00 0.000000000000000000e+00 1.284584999999999980e-03 1.045253571299999962e+01 0.000000000000000000e+00 -1.801532085000000061e+00 -9.179115999999999317e-03 1.055960608400000034e+01
1.047861225599999990e+01 0.000000000000000000e+00 0.000000000000000000e+00 1.300664999999999894e-03 1.058337670699999933e+01 0.000000000000000000e+00 -1.824083000999999982e+00 -9.294016999999999903e-03 1.069178734599999991e+01
1.032089654900000042e+01 0.000000000000000000e+00 0.000000000000000000e+00 1.281089000000000012e-03 1.042408416900000034e+01 0.000000000000000000e+00 -1.796628359000000064e+00 -9.154130999999999380e-03 1.053086309799999931e+01
1.034268173899999965e+01 0.000000000000000000e+00 0.000000000000000000e+00 7.460890999999999877e-03 1.044960436100000045e+01 0.000000000000000000e+00 -1.791241131000000042e+00 -1.211396600000000032e-02 1.056295233099999997e+01
1.033957356099999991e+01 0.000000000000000000e+00 0.000000000000000000e+00 7.458649000000000355e-03 1.044646405099999953e+01 0.000000000000000000e+00 -1.790702827999999913e+00 -1.211032599999999938e-02 1.055977795699999966e+01
1.042393560500000049e+01 0.000000000000000000e+00 0.000000000000000000e+00 1.293878000000000042e-03 1.052815340299999924e+01 0.000000000000000000e+00 -1.814565065999999893e+00 -9.245520999999999601e-03 1.063599836300000057e+01
1.048081255099999964e+01 0.000000000000000000e+00 0.000000000000000000e+00 1.300937999999999964e-03 1.058559900100000029e+01 0.000000000000000000e+00 -1.824466021000000104e+00 -9.295967999999999939e-03 1.069403240399999966e+01
1.028123975799999990e+01 0.000000000000000000e+00 0.000000000000000000e+00 7.416568999999999592e-03 1.038752719300000038e+01 0.000000000000000000e+00 -1.780600041000000022e+00 -1.204200199999999957e-02 1.050020180499999967e+01
1.053035072099999958e+01 0.000000000000000000e+00 0.000000000000000000e+00 7.596269999999999585e-03 1.063921346399999912e+01 0.000000000000000000e+00 -1.823743378000000082e+00 -1.233377499999999995e-02 1.075461814400000016e+01
1.032209429699999959e+01 0.000000000000000000e+00 0.000000000000000000e+00 1.281236999999999958e-03 1.042529389199999912e+01 0.000000000000000000e+00 -1.796836858999999897e+00 -9.155193000000000705e-03 1.053208521200000014e+01
1.037201476499999941e+01 0.000000000000000000e+00 0.000000000000000000e+00 7.482050999999999980e-03 1.047924063199999978e+01 0.000000000000000000e+00 -1.796321295000000040e+00 -1.214832300000000080e-02 1.059291006900000021e+01
1.030024278900000034e+01 0.000000000000000000e+00 0.000000000000000000e+00 7.430276999999999889e-03 1.040672667699999998e+01 0.000000000000000000e+00 -1.783891161999999975e+00 -1.206425900000000079e-02 1.051960954800000003e+01
1.035378597200000073e+01 0.000000000000000000e+00 0.000000000000000000e+00 1.285171000000000100e-03 1.045730241799999938e+01 0.000000000000000000e+00 -1.802353644000000088e+00 -9.183302000000000825e-03 1.056442161700000071e+01
1.047292910400000032e+01 0.000000000000000000e+00 0.000000000000000000e+00 1.299959999999999961e-03 1.057763673500000046e+01 0.000000000000000000e+00 -1.823093695999999930e+00 -9.288975999999999136e-03 1.068598857599999974e+01
1.042046561099999913e+01 0.000000000000000000e+00 0.000000000000000000e+00 1.293447999999999994e-03 1.052464871599999974e+01 0.000000000000000000e+00 -1.813961020000000035e+00 -9.242442999999999492e-03 1.063245777500000067e+01
1.029467742099999938e+01 0.000000000000000000e+00 0.000000000000000000e+00 7.426262000000000314e-03 1.040110377499999927e+01 0.000000000000000000e+00 -1.782927300000000104e+00 -1.205774100000000029e-02 1.051392565299999937e+01
1.060867492999999939e+01 0.000000000000000000e+00 0.000000000000000000e+00 1.316808999999999948e-03 1.071473973900000054e+01 0.000000000000000000e+00 -1.846723890999999895e+00 -9.409376000000000545e-03 1.082449599199999923e+01
1.042812699599999959e+01 0.000000000000000000e+00 0.000000000000000000e+00 1.294398999999999897e-03 1.053238669899999991e+01 0.000000000000000000e+00 -1.815294688999999906e+00 -9.249238999999999378e-03 1.064027502200000086e+01
1.042162099599999969e+01 0.000000000000000000e+00 0.000000000000000000e+00 7.517834999999999622e-03 1.052935969199999988e+01 0.000000000000000000e+00 -1.804912559999999999e+00 -1.220642499999999991e-02 1.064357277599999918e+01
1.048103659400000076e+01 0.000000000000000000e+00 0.000000000000000000e+00 7.560696000000000430e-03 1.058938952799999988e+01 0.000000000000000000e+00 -1.815202701999999890e+00 -1.227601600000000071e-02 1.070425376200000045e+01
1.035835968399999985e+01 0.000000000000000000e+00 0.000000000000000000e+00 1.285738999999999936e-03 1.046192185800000019e+01 0.000000000000000000e+00 -1.803149821000000097e+00 -9.187359000000000844e-03 1.056908837599999984e+01
1.045284619000000070e+01 0.000000000000000000e+00 0.000000000000000000e+00 1.297467000000000065e-03 1.055735303400000014e+01 0.000000000000000000e+00 -1.819597727000000109e+00 -9.271163000000000667e-03 1.066549709899999954e+01
1.058551078400000023e+01 0.000000000000000000e+00 0.000000000000000000e+00 1.313933999999999892e-03 1.069134400000000085e+01 0.000000000000000000e+00 -1.842691550999999928e+00 -9.388830000000000786e-03 1.080086060000000003e+01
1.050039806899999917e+01 0.000000000000000000e+00 0.000000000000000000e+00 1.303368999999999969e-03 1.060538033299999938e+01 0.000000000000000000e+00 -1.827875404000000037e+00 -9.313339999999999813e-03 1.071401636599999918e+01
1.039560829000000020e+01 0.000000000000000000e+00 0.000000000000000000e+00 1.290361999999999976e-03 1.049954287299999933e+01 0.000000000000000000e+00 -1.809633937999999942e+00 -9.220396000000000494e-03 1.060709476100000082e+01
1.038860734800000074e+01 0.000000000000000000e+00 0.000000000000000000e+00 1.289493000000000063e-03 1.049247193699999947e+01 0.000000000000000000e+00 -1.808415236999999953e+00 -9.214187000000000419e-03 1.059995139399999964e+01
1.028802277700000012e+01 0.000000000000000000e+00 0.000000000000000000e+00 1.277008000000000049e-03 1.039088172700000001e+01 0.000000000000000000e+00 -1.790905798999999909e+00 -9.124972999999999765e-03 1.049732054699999928e+01
1.035314734500000000e+01 0.000000000000000000e+00 0.000000000000000000e+00 1.285092000000000049e-03 1.045665740599999971e+01 0.000000000000000000e+00 -1.802242474000000039e+00 -9.182734999999999162e-03 1.056376999799999972e+01
1.048953634000000079e+01 0.000000000000000000e+00 0.000000000000000000e+00 1.302020999999999994e-03 1.059441000900000063e+01 0.000000000000000000e+00 -1.825984629999999997e+00 -9.303706000000000129e-03 1.070293366800000001e+01
1.038892512900000042e+01 0.000000000000000000e+00 0.000000000000000000e+00 1.289533000000000042e-03 1.049279289400000081e+01 0.000000000000000000e+00 -1.808470554999999980e+00 -9.214468999999999438e-03 1.060027563899999947e+01
1.055689519100000062e+01 0.000000000000000000e+00 0.000000000000000000e+00 7.615417999999999667e-03 1.066603235100000013e+01 0.000000000000000000e+00 -1.828340595000000013e+00 -1.236486600000000040e-02 1.078172793799999951e+01
1.035992202000000084e+01 0.000000000000000000e+00 0.000000000000000000e+00 1.285932999999999955e-03 1.046349981400000040e+01 0.000000000000000000e+00 -1.803421786999999998e+00 -9.188744000000000425e-03 1.057068249599999987e+01
1.033657146100000013e+01 0.000000000000000000e+00 0.000000000000000000e+00 1.283033999999999954e-03 1.043991579799999947e+01 0.000000000000000000e+00 -1.799356997000000069e+00 -9.168033000000000779e-03 1.054685689699999962e+01
1.052820525399999951e+01 0.000000000000000000e+00 0.000000000000000000e+00 7.594721999999999931e-03 1.063704581700000062e+01 0.000000000000000000e+00 -1.823371805999999928e+00 -1.233126200000000082e-02 1.075242698399999952e+01
1.040164399500000059e+01 0.000000000000000000e+00 0.000000000000000000e+00 1.291112000000000076e-03 1.050563892299999935e+01 0.000000000000000000e+00 -1.810684613999999915e+00 -9.225749999999999576e-03 1.061325325600000014e+01
1.046821238000000065e+01 0.000000000000000000e+00 0.000000000000000000e+00 1.299374000000000058e-03 1.057287285399999988e+01 0.000000000000000000e+00 -1.822272624000000008e+00 -9.284792999999999519e-03 1.068117589699999925e+01
1.024428632200000067e+01 0.000000000000000000e+00 0.000000000000000000e+00 1.271578999999999895e-03 1.034670799899999949e+01 0.000000000000000000e+00 -1.783292298000000109e+00 -9.086181000000000466e-03 1.045269432499999951e+01
1.047829102600000084e+01 0.000000000000000000e+00 0.000000000000000000e+00 1.300624999999999915e-03 1.058305226499999918e+01 0.000000000000000000e+00 -1.824027081999999966e+00 -9.293732000000000729e-03 1.069145958100000016e+01
1.055202724099999934e+01 0.000000000000000000e+00 0.000000000000000000e+00 1.309777999999999941e-03 1.065752568999999994e+01 0.000000000000000000e+00 -1.836862844000000106e+00 -9.359131999999999174e-03 1.076669587299999975e+01
1.036012401199999999e+01 0.000000000000000000e+00 0.000000000000000000e+00 7.473472999999999575e-03 1.046722695200000075e+01 0.000000000000000000e+00 -1.794261944999999914e+00 -1.213439600000000042e-02 1.058076607599999974e+01
1.029825101299999979e+01 0.000000000000000000e+00 0.000000000000000000e+00 1.278278000000000096e-03 1.040121222400000001e+01 0.000000000000000000e+00 -1.792686296999999929e+00 -9.134045000000000358e-03 1.050775686399999920e+01
1.053367800600000059e+01 0.000000000000000000e+00 0.000000000000000000e+00 1.307500000000000068e-03 1.063899300099999934e+01 0.000000000000000000e+00 -1.833668668000000057e+00 -9.342856999999999551e-03 1.074797334400000004e+01
1.035262253500000007e+01 0.000000000000000000e+00 0.000000000000000000e+00 1.285027000000000001e-03 1.045612734900000085e+01 0.000000000000000000e+00 -1.802151116000000108e+00 -9.182269999999999321e-03 1.056323451199999930e+01
1.026293923699999944e+01 0.000000000000000000e+00 0.000000000000000000e+00 7.403367000000000107e-03 1.036903748099999945e+01 0.000000000000000000e+00 -1.777430588000000089e+00 -1.202056699999999936e-02 1.048151153399999913e+01
1.031440048600000026e+01 0.000000000000000000e+00 0.000000000000000000e+00 1.280281999999999991e-03 1.041752315799999984e+01 0.000000000000000000e+00 -1.795497544999999917e+00 -9.148368999999999945e-03 1.052423487899999976e+01
1.048867811799999927e+01 0.000000000000000000e+00 0.000000000000000000e+00 1.301915000000000060e-03 1.059354320699999974e+01 0.000000000000000000e+00 -1.825835233000000057e+00 -9.302944999999999964e-03 1.070205798599999980e+01
1.032758212000000064e+01 0.000000000000000000e+00 0.000000000000000000e+00 1.281919000000000071e-03 1.043083658199999952e+01 0.000000000000000000e+00 -1.797792161999999916e+00 -9.160059999999999383e-03 1.053768467799999975e+01
1.037099957000000039e+01 0.000000000000000000e+00 0.000000000000000000e+00 1.287308000000000029e-03 1.047468811599999938e+01 0.000000000000000000e+00 -1.805350130999999969e+00 -9.198569999999999663e-03 1.058198540499999929e+01
1.032813174800000056e+01 0.000000000000000000e+00 0.000000000000000000e+00 1.281987000000000057e-03 1.043139170599999943e+01 0.000000000000000000e+00 -1.797887838999999932e+00 -9.160547999999999261e-03 1.053824548899999947e+01
1.051223985899999924e+01 0.000000000000000000e+00 0.000000000000000000e+00 1.304838999999999912e-03 1.061734051700000059e+01 0.000000000000000000e+00 -1.829936784999999899e+00 -9.323843000000000061e-03 1.072609906299999949e+01
1.043077435300000033e+01 0.000000000000000000e+00 0.000000000000000000e+00 1.294727000000000074e-03 1.053506052400000037e+01 0.000000000000000000e+00 -1.815755532999999922e+00 -9.251587000000000352e-03 1.064297623699999917e+01
1.048117498799999936e+01 0.000000000000000000e+00 0.000000000000000000e+00 1.300982999999999914e-03 1.058596506099999957e+01 0.000000000000000000e+00 -1.824529113000000091e+00 -9.296290000000000456e-03 1.069440221400000013e+01
1.036640866299999963e+01 0.000000000000000000e+00 0.000000000000000000e+00 7.478007000000000057e-03 1.047357657300000078e+01 0.000000000000000000e+00 -1.795350379000000052e+00 -1.214175699999999955e-02 1.058718457199999996e+01
1.040910314999999997e+01 0.000000000000000000e+00 0.000000000000000000e+00 1.292037000000000003e-03 1.051317265399999989e+01 0.000000000000000000e+00 -1.811983080000000079e+00 -9.232366000000000530e-03 1.062086415899999992e+01
1.033562285300000028e+01 0.000000000000000000e+00 0.000000000000000000e+00 7.455798999999999933e-03 1.044247249999999916e+01 0.000000000000000000e+00 -1.790018608000000011e+00 -1.210569799999999981e-02 1.055574310999999987e+01
1.049560838899999915e+01 0.000000000000000000e+00 0.000000000000000000e+00 7.571208000000000278e-03 1.060411196599999961e+01 0.000000000000000000e+00 -1.817726380000000086e+00 -1.229308299999999979e-02 1.071913589599999916e+01
1.027627724999999970e+01 0.000000000000000000e+00 0.000000000000000000e+00 7.412989000000000037e-03 1.038251338299999915e+01 0.000000000000000000e+00 -1.779740587999999901e+00 -1.203618899999999922e-02 1.049513360899999981e+01
1.044580225500000026e+01 0.000000000000000000e+00 0.000000000000000000e+00 7.535278999999999762e-03 1.055379093600000040e+01 0.000000000000000000e+00 -1.809100493999999948e+00 -1.223474700000000068e-02 1.066826902799999921e+01
1.037801570799999951e+01 0.000000000000000000e+00 0.000000000000000000e+00 1.288178999999999973e-03 1.048177440099999913e+01 0.000000000000000000e+00 -1.806571477999999953e+00 -9.204791999999999835e-03 1.058914427799999913e+01
1.041919661400000052e+01 0.000000000000000000e+00 0.000000000000000000e+00 7.516085999999999948e-03 1.052691024599999992e+01 0.000000000000000000e+00 -1.804492683000000097e+00 -1.220358499999999943e-02 1.064109676100000001e+01
1.031492558300000084e+01 0.000000000000000000e+00 0.000000000000000000e+00 7.440869000000000129e-03 1.042156126200000088e+01 0.000000000000000000e+00 -1.786434062999999961e+00 -1.208145600000000083e-02 1.053460504499999928e+01
1.044969473299999940e+01 0.000000000000000000e+00 0.000000000000000000e+00 1.297076000000000088e-03 1.055417006899999954e+01 0.000000000000000000e+00 -1.819049131000000097e+00 -9.268368000000000786e-03 1.066228152999999956e+01
1.032203794499999994e+01 0.000000000000000000e+00 0.000000000000000000e+00 7.445999000000000020e-03 1.042874715199999969e+01 0.000000000000000000e+00 -1.787665848000000057e+00 -1.208978699999999941e-02 1.054186888099999919e+01
1.034759581399999995e+01 0.000000000000000000e+00 0.000000000000000000e+00 7.464435999999999641e-03 1.045456923799999949e+01 0.000000000000000000e+00 -1.792092196000000026e+00 -1.211972199999999944e-02 1.056797106199999980e+01
1.037478919700000013e+01 0.000000000000000000e+00 0.000000000000000000e+00 1.287778000000000056e-03 1.047851563200000058e+01 0.000000000000000000e+00 -1.806009817000000073e+00 -9.201930999999999999e-03 1.058585212800000086e+01
1.035792323799999970e+01 0.000000000000000000e+00 0.000000000000000000e+00 1.285684999999999953e-03 1.046148104799999956e+01 0.000000000000000000e+00 -1.803073845999999980e+00 -9.186971000000000373e-03 1.056864305100000045e+01
1.039873604799999995e+01 0.000000000000000000e+00 0.000000000000000000e+00 7.501327000000000342e-03 1.050623815900000046e+01 0.000000000000000000e+00 -1.800949133999999896e+00 -1.217962000000000038e-02 1.062020044199999980e+01
1.040817255900000049e+01 0.000000000000000000e+00 0.000000000000000000e+00 7.508133999999999642e-03 1.051577222499999920e+01 0.000000000000000000e+00 -1.802583435999999928e+00 -1.219067300000000083e-02 1.062983792400000027e+01
1.044337462000000016e+01 0.000000000000000000e+00 0.000000000000000000e+00 7.533528000000000273e-03 1.055133820500000041e+01 0.000000000000000000e+00 -1.808680054000000093e+00 -1.223190400000000004e-02 1.066578969200000060e+01
1.047658587499999960e+01 0.000000000000000000e+00 0.000000000000000000e+00 1.300413999999999954e-03 1.058133006599999959e+01 0.000000000000000000e+00 -1.823730255000000078e+00 -9.292219000000000867e-03 1.068971973999999925e+01
1.037712752899999913e+01 0.000000000000000000e+00 0.000000000000000000e+00 1.288068000000000069e-03 1.048087734199999943e+01 0.000000000000000000e+00 -1.806416867000000037e+00 -9.204004999999999478e-03 1.058823803099999949e+01
1.046013149100000028e+01 0.000000000000000000e+00 0.000000000000000000e+00 1.298370999999999987e-03 1.056471117299999918e+01 0.000000000000000000e+00 -1.820865928999999994e+00 -9.277624999999999414e-03 1.067293061099999996e+01
1.041420963899999919e+01 0.000000000000000000e+00 0.000000000000000000e+00 1.292671000000000011e-03 1.051833019699999916e+01 0.000000000000000000e+00 -1.812872000999999900e+00 -9.236895000000000175e-03 1.062607453300000060e+01
1.036270953300000031e+01 0.000000000000000000e+00 0.000000000000000000e+00 1.286278999999999981e-03 1.046631519600000004e+01 0.000000000000000000e+00 -1.803907028000000023e+00 -9.191216999999999790e-03 1.057352671800000010e+01
1.044002990499999939e+01 0.000000000000000000e+00 0.000000000000000000e+00 7.531114999999999685e-03 1.054795891200000035e+01 0.000000000000000000e+00 -1.808100784999999933e+00 -1.222798599999999972e-02 1.066237374399999993e+01
1.050433793000000016e+01 0.000000000000000000e+00 0.000000000000000000e+00 1.303857999999999970e-03 1.060935958499999998e+01 0.000000000000000000e+00 -1.828561243000000003e+00 -9.316833999999999533e-03 1.071803637900000084e+01
1.048224082900000020e+01 0.000000000000000000e+00 0.000000000000000000e+00 1.301115999999999948e-03 1.058704155799999924e+01 0.000000000000000000e+00 -1.824714651000000076e+00 -9.297234999999999180e-03 1.069548973799999914e+01
1.024876800200000027e+01 0.000000000000000000e+00 0.000000000000000000e+00 1.272136000000000100e-03 1.035123448599999918e+01 0.000000000000000000e+00 -1.784072455000000001e+00 -9.090156000000000278e-03 1.045726718000000055e+01
1.041540426699999955e+01 0.000000000000000000e+00 0.000000000000000000e+00 1.292820000000000080e-03 1.051953676800000004e+01 0.000000000000000000e+00 -1.813079958000000103e+00 -9.237953999999999610e-03 1.062729346399999919e+01
1.037645445200000083e+01 0.000000000000000000e+00 0.000000000000000000e+00 1.287984999999999955e-03 1.048019753600000037e+01 0.000000000000000000e+00 -1.806299700000000064e+00 -9.203407999999999728e-03 1.058755126099999977e+01
1.023420885800000057e+01 0.000000000000000000e+00 0.000000000000000000e+00 1.270328999999999946e-03 1.033652978099999942e+01 0.000000000000000000e+00 -1.781538046000000097e+00 -9.077243000000000464e-03 1.044241184700000069e+01
