4.306359999999999744e+00 -3.581515000000000004e+00 -2.346484999999999932e+00 -7.573189999999999644e-01 -3.352419999999999844e-01 8.479600000000000470e-01 1.251184999999999992e+00 4.379600000000000160e-02 -1.082192000000000043e+00 -1.143534999999999968e+00 -1.130095000000000072e+00 6.857820000000000027e-01 -3.267342999999999886e+00 6.683879999999999821e-01 -4.850305999999999784e+00 2.083241000000000120e+00 -2.172022000000000119e+00 1.592899999999999872e-01 4.136969999999999814e-01 -3.634924999999999962e+00 -5.658130000000000104e-01 5.568940000000000001e-01 -1.885390000000000121e-01 -1.257495000000000029e+00 -1.102373000000000047e+00 -2.430400000000000060e-01 -1.713433999999999902e+00 -1.213160000000000016e+00 -9.670699999999999852e-01 3.343550000000000133e-01 -6.277390000000000470e-01 3.967060000000000031e-01 8.899029999999999996e-01 2.388541000000000025e+00 1.570600999999999914e+00 1.903238999999999903e+00 8.426299999999999901e-01 2.583114999999999828e+00 -2.235136999999999929e+00 2.171130000000000004e-01 1.470690999999999971e+00 1.417885000000000062e+00 3.382935999999999943e+00 1.313374000000000041e+00 -1.368557999999999941e+00 -2.744899999999999896e+00 4.947059999999999791e-01 -1.009832000000000063e+00 -6.523320000000000229e-01 -9.754230000000000400e-01 -1.600001000000000007e+00 -1.512745999999999924e+00 5.310150000000000148e-01 1.545499999999999999e-02 2.046851999999999894e+00 -1.538129999999999997e+00 -5.640070000000000361e-01 1.443321999999999994e+00 -5.997350000000000181e-01 2.980081000000000202e+00 -2.438598999999999961e+00 2.368554000000000048e+00 -1.204326000000000008e+00 2.748869999999999925e-01 1.602103000000000055e+00 2.637760000000000105e-01 4.424429999999999752e-01 -3.244753999999999916e+00 1.634946999999999928e+00 -4.689019999999999855e-01 -7.864189999999999792e-01 -5.624519999999999520e-01 -7.472720000000000473e-01 3.926572000000000173e+00 1.653431000000000095e+00 1.691607000000000083e+00 1.160385999999999918e+00 -2.020624000000000198e+00 3.866760000000000197e-01 -8.308950000000000502e-01 1.251312999999999898e+00 -1.348543000000000047e+00 1.041830000000000034e+00 1.387396999999999991e+00 3.806626000000000065e+00 1.748604000000000047e+00 4.202000000000000179e-01 6.704369999999999497e-01 8.404190000000000271e-01 5.537189999999999612e-01 -2.675069999999999837e+00 6.890140000000000153e-01 1.724200000000000038e-02 -5.042229999999999768e-01 5.931999999999999773e-02 1.641618000000000022e+00 -5.271670000000000300e+00 4.991657000000000011e+00 4.099848999999999855e+00 1.479276999999999953e+00 -1.837412999999999963e+00 1.534513000000000016e+00 1.033690000000000025e-01 -2.121884000000000103e+00 -2.221638000000000002e+00 -7.197689999999999921e-01 1.362878999999999952e+00 1.044229999999999992e+00 7.756799999999999806e-02 -9.762830000000000119e-01 1.496312000000000086e+00 -1.082190999999999903e+00 5.511939999999999618e-01 1.784168999999999894e+00 1.773938000000000015e+00 -5.892239999999999700e-01 9.125550000000000050e-01 -8.771970000000000045e-01 1.897002999999999995e+00 -1.954649999999999999e-01 5.866799999999999793e-01 1.080799999999999955e-01 -1.053163000000000071e+00 -1.105699999999999905e+00 4.191139999999999866e-01 1.267085000000000017e+00 -1.821166000000000063e+00 -4.567700000000000093e-01 -1.533050999999999942e+00 6.862559999999999771e-01 -2.973770000000000024e-01 2.918175999999999881e+00 -8.729109999999999925e-01 -4.844359999999999777e-01 1.136557999999999957e+00 9.451129999999999809e-01 1.846916000000000002e+00 -7.315720000000000001e-01 2.984870000000000023e-01 1.084818999999999978e+00 1.720083000000000029e+00 5.294200000000000017e-01 -9.085290000000000310e-01 -4.100969999999999893e-01 -9.263909999999999645e-01 -1.986696000000000017e+00 -9.990179999999999616e-01 -1.634988000000000108e+00 2.435209999999999875e-01 -2.795320000000000027e-01 -4.918609999999999927e-01 5.340650000000000119e-01 -9.517179999999999529e-01 -2.565771999999999942e+00 2.692375000000000185e+00 -7.088999999999999815e-03 2.293182999999999971e+00 -2.403846999999999845e+00 -1.281020000000000048e+00 1.732334000000000040e+00 -1.058615000000000084e+00 -1.802897999999999890e+00 -1.357685000000000031e+00 7.507340000000000124e-01 4.816070000000000073e-01 -1.697462000000000026e+00 -3.003788999999999820e+00 2.519632000000000094e+00 -1.001724999999999977e+00 6.340559999999999530e-01 -3.936350000000000016e+00 1.812788000000000066e+00 -2.308020000000000072e-01 1.356630000000000003e+00 -4.212870000000000226e-01 9.503899999999999848e-02 -1.557703000000000060e+00 -1.074159999999999976e-01 -7.041969999999999619e-01 -6.816539999999999822e-01 -1.267968999999999902e+00 -7.735910000000000286e-01 -2.601326999999999945e+00 -2.686027999999999860e+00 -1.661237999999999992e+00 -3.798392999999999908e+00 -2.224874999999999936e+00 -1.902605000000000102e+00 6.845900000000000596e-02 1.907885999999999971e+00 3.665530000000000177e-01 -3.471179999999999821e-01 1.179658000000000095e+00 -5.567459999999999631e-01 1.407993999999999968e+00 7.676359999999999850e-01 -4.644659999999999900e-01 -4.501419999999999866e-01 -2.687649999999999761e-01 3.948760000000000048e-01 -3.647759999999999891e-01 -2.389046000000000003e+00 7.299109999999999765e-01 1.854122000000000048e+00 6.396629999999999816e-01 -3.138323000000000196e+00 1.597310000000000119e-01 -1.847455000000000069e+00 6.670999999999999847e-03 4.416800000000000170e-01 3.767704999999999860e+00 1.773217000000000043e+00 1.829089999999999883e-01 4.608019999999999894e-01 -1.495681000000000038e+00 2.535467999999999833e+00 -7.843240000000000212e-01 -5.961940000000000017e-01 1.215305999999999997e+00 -1.521182999999999952e+00 2.148180000000000089e-01 -2.671419999999999906e-01 3.780733000000000121e+00 8.540689999999999671e-01 1.132800999999999947e+00 -1.559949999999999948e-01 -9.680349999999999788e-01 -1.547563999999999940e+00 4.437150000000000261e-01 -2.442130000000000134e-01 -1.698320000000000107e-01 -8.000580000000000469e-01 -3.043705999999999801e+00 -8.893360000000000154e-01 1.207300000000000040e-02 -3.275120000000000253e-01 3.155676000000000148e+00 3.076429000000000080e+00 -8.058739999999999792e-01 -2.184375999999999873e+00 -3.800599999999999812e-02 -1.215783000000000058e+00 1.374867999999999979e+00 5.525069999999999704e-01 -9.837620000000000253e-01 -1.982140000000000013e-01 -1.057210999999999901e+00 4.776099999999999790e-02 1.801107999999999931e+00 -2.382338999999999984e+00 -1.725116000000000094e+00 2.472805999999999838e+00 1.453986000000000001e+00 4.105140999999999707e+00 1.467484000000000011e+00 -1.975257999999999958e+00 6.730979999999999741e-01 -2.069844999999999935e+00 1.105159999999999920e+00 1.673740000000000006e+00 6.404980000000000118e-01 1.051703999999999972e+00 2.318795999999999857e+00 2.533074000000000048e+00 2.240625000000000089e+00 -1.324970000000000037e-01 -9.832619999999999694e-01 2.782479999999999953e-01 2.926598999999999950e+00 8.619409999999999572e-01 -1.636114999999999986e+00 5.240409999999999791e-01 -3.008077999999999808e+00 7.604659999999999753e-01 3.459149999999999725e-01 -1.444999999999999896e-01 2.087630000000000041e-01 -5.479209999999999914e-01 -3.284905999999999882e+00 2.486225999999999825e+00 7.960540000000000393e-01 -5.294569999999999554e-01 -5.039709999999999468e-01 3.990199999999999858e-01 -7.740230000000000166e-01
-1.384325000000000028e+00 -5.903169999999999806e-01 1.055271999999999988e+00 -8.330490000000000395e-01 -9.139310000000000489e-01 1.903891999999999918e+00 -2.405629999999999935e+00 -4.862679999999999780e-01 1.230582000000000065e+00 -1.722310999999999925e+00 2.171663000000000121e+00 3.671679999999999944e-01 -1.957219000000000042e+00 -5.307399999999999896e-01 -1.485200000000000076e+00 3.212288000000000032e+00 -1.752842000000000011e+00 -2.849010000000000153e-01 -1.289890999999999899e+00 -5.145790000000000086e-01 2.470483999999999902e+00 -1.228544999999999998e+00 1.217087000000000030e+00 -1.782073000000000018e+00 -8.108200000000000129e-02 -2.359367000000000214e+00 -2.333775999999999851e+00 -6.350329999999999586e-01 2.862095000000000056e+00 -1.487543999999999977e+00 2.428900000000000156e-02 3.753105000000000135e+00 -2.227749000000000201e+00 -6.816550000000000109e-01 -9.226750000000000229e-01 -4.110812000000000133e+00 4.004133999999999638e+00 7.745170000000000110e-01 9.525150000000000006e-01 5.443839999999999790e-01 -1.762199999999999878e-02 -5.183959999999999679e-01 2.496039000000000119e+00 3.042679000000000133e+00 8.448700000000000099e-01 6.277399999999999647e-02 -3.755419999999999869e-01 6.392820000000000169e-01 -7.138299999999999645e-01 -2.624569999999999848e+00 4.235820000000000141e-01 -1.817647000000000013e+00 -2.109099999999999864e-01 4.759873999999999938e+00 -1.104791000000000079e+00 -1.881520000000000081e+00 -5.206399999999999917e-02 1.669669999999999987e+00 1.003646999999999956e+00 1.883640000000000037e-01 3.214164999999999939e+00 -3.000030000000000197e-01 -3.078504999999999825e+00 4.190639999999999921e-01 -1.146287999999999974e+00 -8.794319999999999915e-01 1.463899999999999979e+00 -8.009030000000000316e-01 2.156649999999999956e-01 1.579998999999999931e+00 -3.981390000000000207e-01 7.992989999999999817e-01 -2.738147999999999804e+00 -1.112602000000000091e+00 1.071288999999999936e+00 8.161850000000000493e-01 -1.786421999999999954e+00 -2.109014000000000166e+00 3.555799999999999933e-02 1.268035999999999941e+00 -3.028370000000000228e-01 1.019439999999999902e+00 2.555095999999999812e+00 -1.489222999999999963e+00 -1.527560999999999947e+00 -1.342260999999999926e+00 2.635542000000000051e+00 2.648922000000000221e+00 2.246668999999999805e+00 1.539654000000000078e+00 -2.053605000000000125e+00 1.850977000000000094e+00 2.889829999999999899e+00 -4.116227000000000302e+00 4.874929999999999986e+00 -1.485740000000000061e+00 1.460599999999999919e-02 -1.105730000000000102e+00 -5.225619999999999710e-01 7.689460000000000184e-01 7.286730000000000151e-01 -4.686719999999999775e-01 -1.141410000000000063e-01 4.024989999999999957e-01 1.602979999999999960e-01 -5.293499999999999872e-01 1.539833999999999925e+00 1.255614000000000008e+00 1.063798000000000021e+00 -1.452838999999999992e+00 5.510559999999999903e-01 2.500299999999999745e-01 1.156179999999999986e+00 2.829107000000000038e+00 -1.133734999999999937e+00 -6.179780000000000273e-01 -1.961581999999999937e+00 6.033159999999999634e-01 -1.265954999999999941e+00 -1.816063999999999901e+00 3.738335999999999881e+00 3.615092000000000194e+00 -1.388981000000000021e+00 -1.013074999999999948e+00 2.967389999999999750e-01 4.119570000000000176e-01 -2.555400000000000033e-02 1.154288999999999898e+00 2.294537000000000049e+00 1.159667000000000003e+00 1.019265000000000088e+00 3.785899999999999821e-01 -3.662699999999999984e-02 -1.708409999999999929e-01 -1.261565000000000047e+00 1.581159999999999899e+00 -4.963199999999999834e-01 4.300334999999999575e+00 -2.966869999999999785e-01 3.937450000000000117e-01 6.556629999999999958e-01 9.224329999999999474e-01 3.813420000000000143e-01 1.692312000000000038e+00 2.814168000000000003e+00 -1.506204000000000098e+00 -9.788850000000000051e-01 1.558146000000000031e+00 -1.080216000000000065e+00 -1.116059999999999969e-01 6.276779999999999582e-01 2.182330000000000103e-01 2.578758999999999801e+00 1.553299999999999959e-01 -1.468704000000000010e+00 -1.071069999999999967e+00 -1.360551000000000066e+00 -5.642549999999999510e-01 -1.357009999999999883e-01 -2.356831999999999816e+00 9.103240000000000220e-01 -4.329060000000000130e-01 -9.791760000000000463e-01 -6.137970000000000370e-01 -5.440500000000000197e-02 9.972619999999999818e-01 -1.061609999999999943e+00 -2.653766000000000069e+00 -8.236719999999999597e-01 -1.476290000000000102e+00 1.858339999999999992e-01 -7.188039999999999985e-01 -2.313419999999999921e-01 -1.719581999999999944e+00 8.303859999999999575e-01 -1.608371999999999913e+00 1.362654999999999950e+00 8.194780000000000397e-01 -9.226360000000000117e-01 -5.092719999999999470e-01 -4.311459999999999737e-01 -8.289279999999999982e-01 1.381089999999999929e+00 2.525910000000000100e+00 5.549049999999999816e-01 -2.344905999999999935e+00 -4.736500999999999628e+00 -1.891008999999999940e+00 -2.334953000000000056e+00 -1.116986000000000034e+00 4.011680000000000246e-01 -2.041409999999999891e-01 1.517789999999999973e-01 2.781684999999999963e+00 -1.768958000000000030e+00 -1.683113000000000081e+00 -1.955702000000000051e+00 -4.173120000000000163e-01 -1.125430000000000041e-01 -2.065189000000000163e+00 2.819026000000000032e+00 1.554594000000000031e+00 -1.757853000000000110e+00 -7.774889999999999857e-01 9.221899999999999542e-02 -8.503209999999999935e-01 -2.657427999999999901e+00 7.749740000000000517e-01 -1.429745000000000044e+00 -4.634260000000000046e-01 2.056782999999999806e+00 -5.871060000000000167e-01 -1.078208999999999973e+00 6.955320000000000391e-01 -3.070021999999999807e+00 2.056423000000000112e+00 -1.960787000000000058e+00 -1.743430000000000035e+00 -1.112327000000000066e+00 3.376507000000000147e+00 -3.665809999999999902e-01 1.458042999999999978e+00 -1.628189000000000108e+00 -2.831712000000000007e+00 -1.430571999999999955e+00 -1.205200000000000021e-02 -1.371345000000000036e+00 5.601450000000000040e-01 1.384365999999999985e+00 -1.205545000000000089e+00 4.772239999999999815e-01 -2.704515999999999920e+00 9.756510000000000460e-01 5.123720000000000496e-01 1.852669999999999872e-01 -5.095089999999999897e-01 -1.146937000000000095e+00 1.331650000000000056e-01 -9.878099999999999659e-01 -1.608049999999999979e+00 -9.539309999999999734e-01 3.236289000000000193e+00 3.893289999999999806e-01 -2.566475000000000062e+00 -1.999932000000000043e+00 2.239780999999999800e+00 -1.332727999999999913e+00 1.011768000000000001e+00 -2.172540000000000138e+00 -1.510054999999999925e+00 7.768340000000000245e-01 -8.877629999999999688e-01 -9.970849999999999991e-01 1.668673999999999991e+00 2.833840000000000248e-01 1.102270000000000083e+00 2.753619999999999957e-01 1.116246999999999989e+00 4.523510000000000031e-01 2.581080000000000041e-01 -2.182830000000000048e+00 -2.799300000000000122e-01 2.519986999999999977e+00 7.424950000000000161e-01 -2.716720000000000246e-01 1.403432999999999931e+00 -2.042027000000000037e+00 1.405972000000000000e+00 -4.134990000000000054e-01 -1.068550000000000055e-01 6.071800000000000114e-02 1.129437000000000024e+00 -1.251996000000000109e+00 2.486114000000000157e+00 3.131962000000000135e+00 3.734055999999999820e+00 4.214379999999999793e-01 1.778896999999999951e+00 2.041500999999999788e+00 -1.185032000000000085e+00 -7.200630000000000086e-01 1.089563999999999977e+00 -8.140119999999999578e-01 9.550149999999999473e-01 1.158044999999999991e+00
-5.442948999999999593e+00 -2.684934999999999850e+00 2.465670000000000084e-01 -2.283930000000000127e-01 2.672800000000000176e-01 1.219790000000000041e-01 2.208966999999999903e+00 -4.927900000000000058e-01 3.175904000000000060e+00 -8.301159999999999650e-01 1.260629999999999917e+00 -6.547789999999999999e-01 -1.371618999999999922e+00 -3.207005000000000106e+00 -3.225878999999999941e+00 4.286299999999999832e-02 -8.881200000000000205e-01 1.811628999999999934e+00 -3.329471999999999987e+00 3.862842999999999805e+00 4.792965999999999838e+00 1.671600000000000169e-02 -2.062984000000000151e+00 5.653120000000000367e-01 -9.682950000000000168e-01 -1.582395999999999914e+00 1.155246999999999913e+00 -9.557539999999999925e-01 2.080289000000000055e+00 -3.201499999999999901e-01 1.985449000000000019e+00 -1.689314999999999900e+00 6.661869999999999736e-01 1.553414999999999990e+00 -2.329579999999999984e-01 8.112390000000000434e-01 8.771529999999999605e-01 1.384659000000000084e+00 -7.573779999999999957e-01 1.557004000000000055e+00 -1.693330000000000113e-01 -1.132627999999999968e+00 -1.307096000000000036e+00 1.184298999999999991e+00 -6.719479999999999897e-01 1.132959999999999939e-01 8.317360000000000309e-01 -1.978336000000000094e+00 3.462118999999999946e+00 -5.075889999999999569e-01 3.957800000000000207e+00 3.478740000000000165e-01 1.227289000000000074e+00 -2.490552000000000099e+00 -3.422696999999999878e+00 -2.149875999999999898e+00 7.237860000000000404e-01 3.869170000000000109e-01 -7.920599999999999863e-02 1.784097999999999962e+00 4.192302999999999891e+00 -3.633662999999999865e+00 -2.885472000000000037e+00 -8.665730000000000377e-01 -4.927529999999999966e-01 1.537851999999999997e+00 5.276188000000000322e+00 8.484700000000000575e-02 -1.642984999999999918e+00 -6.091640000000000388e-01 2.908410000000000162e-01 -1.108454000000000050e+00 -1.871977999999999920e+00 -1.899165999999999910e+00 3.612277999999999878e+00 -6.005840000000000067e-01 4.409580000000000166e-01 -2.551565999999999779e+00 -4.220829999999999860e-01 1.326583000000000068e+00 1.117729999999999974e-01 -1.702979999999999938e+00 3.777829999999999799e-01 -1.675043000000000060e+00 -6.931979999999999809e-01 -1.549055999999999989e+00 -2.761003000000000096e+00 -2.215390000000000137e-01 2.543058999999999958e+00 -7.873269999999999991e-01 1.909701000000000093e+00 4.564352999999999660e+00 4.087239999999999762e-01 -1.443599999999999918e-02 3.017666000000000182e+00 6.901310000000000500e-01 2.909203000000000205e+00 8.592999999999999527e-01 1.007770999999999972e+00 -1.010090000000000016e-01 -7.532240000000000046e-01 9.883100000000000218e-01 -3.127372999999999958e+00 1.587029000000000023e+00 -6.877010000000000067e-01 2.143879999999999786e+00 -1.636743999999999977e+00 7.044700000000000406e-01 -1.436344999999999983e+00 1.329259999999999886e-01 5.638200000000000156e-02 -1.934170000000000056e-01 1.697529000000000066e+00 2.190932999999999797e+00 -8.996640000000000192e-01 6.761500000000000288e-01 1.427710999999999952e+00 6.031170000000000142e-01 1.482150000000000134e-01 2.120740000000000125e-01 9.229810000000000514e-01 -1.042864999999999931e+00 2.368287000000000031e+00 -1.461438999999999933e+00 -3.763500000000000179e-02 4.159769999999999857e-01 -3.062342999999999815e+00 -1.410762000000000072e+00 -9.032390000000000141e-01 -9.557740000000000125e-01 -1.058891000000000027e+00 -1.174120999999999970e+00 3.346600000000000130e-01 -6.081119999999999859e-01 1.256043999999999938e+00 -2.720139999999999780e-01 4.648399999999999754e-02 -1.990500000000000047e-01 5.221000000000000085e-01 -5.599070000000000435e-01 1.467781000000000002e+00 -6.116650000000000142e-01 5.579030000000000378e-01 -2.567715000000000192e+00 -2.419836000000000098e+00 -1.164430000000000048e-01 2.236632000000000176e+00 4.279290000000000038e-01 2.245969999999999911e-01 -2.952600000000000224e-01 6.650220000000000020e-01 1.554460000000000008e-01 -4.391590000000000216e-01 4.510700000000000126e-02 -2.588308000000000053e+00 1.053598000000000035e+00 1.498555000000000081e+00 -6.539200000000000568e-02 5.502510000000000456e-01 -1.991123999999999894e+00 -2.469030000000000113e-01 2.936030000000000029e-01 -1.556000999999999967e+00 -2.360682999999999865e+00 -2.122215999999999880e+00 2.186300000000000132e+00 1.358619999999999939e+00 -1.011613000000000095e+00 -6.421710000000000473e-01 -7.403319999999999901e-01 2.097993999999999915e+00 1.440553999999999890e+00 2.315405000000000157e+00 -1.346462000000000048e+00 -1.448210000000000053e-01 -1.689343000000000039e+00 3.077960000000000140e-01 -1.721486000000000072e+00 -8.291699999999999626e-01 -1.456752999999999965e+00 -1.220191000000000026e+00 1.647369000000000083e+00 -3.574295999999999918e+00 -4.303253999999999913e+00 -1.727767999999999970e+00 -3.420453999999999883e+00 -5.496830000000000327e-01 8.130700000000000427e-02 -7.679949999999999832e-01 5.454120000000000079e-01 1.158226999999999896e+00 4.159519999999999884e-01 -3.939170000000000171e-01 1.366482999999999892e+00 -2.113760000000000083e-01 3.682289999999999730e-01 -2.017215000000000202e+00 -4.975464999999999804e+00 -1.472558999999999951e+00 7.011180000000000190e-01 -1.916403000000000079e+00 2.479511000000000021e+00 3.687368000000000201e+00 -1.363510000000000000e+00 6.029099999999999460e-01 1.307225999999999999e+00 -1.344192999999999971e+00 2.089763000000000037e+00 -2.048964999999999925e+00 -6.658849999999999492e-01 1.489951999999999943e+00 4.169169999999999821e-01 5.307929999999999593e-01 -7.881650000000000045e-01 -1.220445999999999920e+00 7.781240000000000379e-01 -6.527749999999999941e-01 -1.401380999999999988e+00 2.310369999999999924e-01 3.479026000000000174e+00 8.561900000000000066e-01 2.160212000000000021e+00 1.506639999999999924e-01 -2.614999999999999963e-02 -1.858587999999999907e+00 -2.247513999999999790e+00 4.741363999999999912e+00 1.950236999999999998e+00 6.959560000000000191e-01 -1.367990000000000039e-01 -4.270600000000000090e-02 -1.959756999999999971e+00 7.100440000000000085e-01 1.004755999999999982e+00 9.909199999999999953e-02 3.595700000000000007e-01 -9.987439999999999651e-01 1.555692999999999993e+00 1.637931999999999944e+00 3.653375000000000039e+00 6.994249999999999634e-01 -2.250624999999999876e+00 -3.383757000000000126e+00 1.477014999999999967e+00 4.558320000000000149e-01 1.846394000000000091e+00 6.337150000000000283e-01 -4.621640000000000192e-01 -4.027140000000000164e-01 1.212939999999999990e-01 2.585064000000000028e+00 8.814260000000000428e-01 1.003769999999999940e-01 -1.210679999999999978e+00 4.082720000000000238e-01 2.929384000000000210e+00 9.663800000000000168e-02 1.559704999999999897e+00 -1.870643000000000056e+00 -2.063032999999999895e+00 -7.727220000000000200e-01 -5.197610000000000285e-01 7.453330000000000233e-01 -1.955797999999999925e+00 -1.347115999999999980e+00 -4.006900000000000045e-02 -2.119530000000000025e-01 2.389256000000000046e+00 -3.240880000000000205e+00 -3.525750000000000273e-01 -1.265920000000000101e-01 1.176569999999999894e+00 3.024048000000000069e+00 3.872639999999999971e-01 2.134449999999999958e-01 1.486420999999999992e+00 2.191288999999999820e+00 -9.323639999999999706e-01 -5.639870000000000161e-01 -6.634409999999999474e-01 -2.681597000000000008e+00 1.944369999999999987e-01 1.456174999999999997e+00 2.077281000000000155e+00 6.956309999999999993e-01
-2.209499999999999797e+00 1.402536000000000005e+00 -4.248930000000000207e-01 -7.255599999999999827e-01 -2.015944999999999876e+00 4.145099999999999896e-01 2.937409999999999743e-01 1.749298000000000020e+00 7.399780000000000246e-01 -3.879779999999999895e-01 3.442959999999999909e-01 7.465209999999999901e-01 -2.916764999999999830e+00 -9.578010000000000135e-01 1.656924000000000063e+00 3.261000000000000010e-02 -2.324523000000000117e+00 -1.036052999999999891e+00 -1.075882000000000005e+00 1.322435999999999945e+00 -2.487966999999999818e+00 -5.914200000000000013e-02 8.169750000000000068e-01 2.058511999999999897e+00 9.321260000000000101e-01 5.946970000000000312e-01 -7.289679999999999493e-01 1.012720000000000065e+00 -5.441420000000000146e-01 1.214291999999999927e+00 1.373507999999999951e+00 -2.525071000000000065e+00 1.970099999999999976e-02 -2.149949999999999917e-01 1.844637000000000082e+00 1.127623000000000042e+00 -5.512620000000000298e-01 -9.844680000000000097e-01 5.251430000000000264e-01 -1.367213999999999929e+00 -1.425901000000000085e+00 -2.394915000000000127e+00 -9.688999999999999696e-03 8.093590000000000506e-01 -7.213669999999999805e-01 -6.864499999999999769e-02 1.361853999999999898e+00 1.300986999999999894e+00 2.620019000000000098e+00 -9.015640000000000320e-01 -5.090689999999999937e-01 -7.157909999999999551e-01 3.058989999999999765e-01 1.430202999999999891e+00 3.365060000000000273e-01 5.030790000000000539e-01 -1.337436000000000069e+00 8.596270000000000300e-01 3.659180000000000210e-01 2.066850000000000076e+00 -1.002091000000000065e+00 1.429848999999999926e+00 2.486422000000000132e+00 5.217900000000000316e-02 -1.949208000000000052e+00 -2.479295000000000027e+00 9.531530000000000280e-01 1.980784000000000100e+00 3.686610000000000165e-01 5.012739999999999974e-01 1.873219999999999885e-01 -1.134984999999999911e+00 1.606854999999999922e+00 -1.696665000000000090e+00 -1.892377999999999894e+00 4.347000000000000169e-03 3.850740000000000274e-01 4.415899999999999687e-02 -3.087820000000000009e-01 -3.020570000000000199e-01 2.197189999999999976e-01 2.204710000000000003e-01 -9.369589999999999863e-01 2.119199999999999903e-02 -3.187425999999999870e+00 -3.644530000000000269e-01 -8.349700000000000177e-02 -6.771490000000000009e-01 -1.867148999999999948e+00 -1.050429999999999975e-01 -1.891362999999999905e+00 -1.024518000000000040e+00 2.799405000000000143e+00 -1.285519999999999996e-01 6.701160000000000450e-01 2.782689999999999886e-01 -1.729527999999999954e+00 1.269233999999999973e+00 2.087566999999999950e+00 1.585209999999999952e-01 -6.568659999999999499e-01 6.009400000000000158e-02 1.620077999999999907e+00 -7.255599999999999550e-02 5.764449999999999852e-01 -8.230950000000000211e-01 5.582249999999999712e-01 1.407800000000000024e-02 1.536219999999999919e+00 -1.503865000000000007e+00 2.670509999999999828e-01 -1.232420999999999989e+00 -2.621220000000000216e-01 1.709269999999999956e-01 -8.325320000000000498e-01 1.248825000000000074e+00 6.006449999999999845e-01 2.369010000000000005e-01 5.161489999999999689e-01 2.146005999999999858e+00 -8.749160000000000270e-01 1.435832999999999915e+00 -1.310335000000000027e+00 9.877800000000000469e-02 4.559770000000000212e-01 -3.264920000000000044e-01 2.650699999999999723e-01 2.814450000000000007e-01 -8.638270000000000115e-01 1.753300000000000136e-01 1.255352999999999941e+00 -7.572980000000000267e-01 -4.271510000000000029e-01 9.040800000000000225e-02 6.986390000000000100e-01 2.842689999999999939e-01 2.313879000000000019e+00 -1.395685999999999982e+00 1.241298000000000012e+00 -3.672929999999999806e-01 1.058726000000000056e+00 -1.466224999999999890e+00 7.396639999999999882e-01 -1.933492999999999906e+00 4.964930000000000176e-01 -1.280666000000000082e+00 7.067269999999999941e-01 -1.418270000000000086e-01 -1.156409000000000020e+00 -1.157931000000000044e+00 -7.584260000000000446e-01 1.281643000000000088e+00 -9.294139999999999624e-01 -4.983600000000000252e-01 -1.102413000000000087e+00 -9.945079999999999476e-01 8.812710000000000266e-01 -4.486499999999999932e-01 8.671700000000000241e-02 1.477289999999999992e+00 -1.589042999999999983e+00 -3.909469999999999890e-01 1.371801999999999966e+00 -2.111419999999999852e+00 -4.889919999999999822e-01 8.701389999999999958e-01 -1.241206999999999949e+00 -1.278519999999999934e-01 8.702760000000000495e-01 1.542020000000000057e-01 -1.118281000000000081e+00 -6.519960000000000200e-01 -1.577118000000000020e+00 1.685020000000000129e-01 -4.365200000000000330e-02 -7.365589999999999637e-01 1.871339999999999948e-01 4.708849999999999980e-01 -6.904289999999999594e-01 -7.103660000000000529e-01 2.645837999999999912e+00 1.396503000000000050e+00 9.364149999999999974e-01 8.048819999999999864e-01 5.983979999999999855e-01 7.712700000000000111e-01 -5.755090000000000483e-01 1.062400999999999929e+00 -1.565425000000000066e+00 5.225859999999999950e-01 -5.027289999999999814e-01 5.011670000000000291e-01 -1.319950000000000012e-01 1.629750000000000087e-01 1.447945999999999955e+00 6.019839999999999636e-01 3.098690000000000055e-01 8.224690000000000056e-01 9.473000000000000309e-01 9.574989999999999890e-01 2.395799999999999874e-01 6.124650000000000372e-01 -1.074332000000000065e+00 9.323909999999999698e-01 -4.282839999999999980e-01 8.859179999999999833e-01 8.982649999999999801e-01 -1.755543999999999993e+00 7.395040000000000502e-01 2.459780000000000022e-01 -5.919929999999999914e-01 -2.232946999999999793e+00 -7.577329999999999899e-01 2.626820000000000266e-01 7.393849999999999589e-01 -9.610009999999999941e-01 9.957810000000000272e-01 -4.577109999999999790e-01 4.125889999999999835e-01 4.994810000000000083e-01 -2.342837999999999976e+00 1.348680000000000101e+00 1.884190000000000031e-01 4.809260000000000201e-01 -3.995380000000000043e-01 -5.075509999999999744e-01 -1.378800000000000026e-01 6.277019999999999822e-01 -3.464439999999999742e-01 4.193540000000000045e-01 -3.539260000000000184e-01 -7.349890000000000034e-01 4.121750000000000136e-01 1.532651999999999903e+00 -1.246320000000000067e-01 8.909639999999999782e-01 1.006320000000000103e+00 9.953600000000000225e-01 1.127660000000000051e-01 -1.611361999999999961e+00 -1.638317999999999941e+00 5.227680000000000105e-01 -9.842549999999999910e-01 1.730240000000000111e-01 9.649980000000000224e-01 -1.819352999999999998e+00 7.836720000000000352e-01 -1.520164000000000071e+00 -1.850779999999999925e-01 -7.855499999999999705e-01 -1.330565999999999915e+00 1.051325000000000065e+00 2.263860000000000039e-01 -9.912819999999999965e-01 -9.568459999999999743e-01 -1.856616999999999962e+00 1.075180999999999942e+00 -1.575431000000000026e+00 -4.534690000000000110e-01 1.396487999999999952e+00 7.327179999999999804e-01 -1.668187000000000086e+00 1.989924000000000026e+00 -1.356727000000000016e+00 2.401869000000000032e+00 7.678500000000000325e-01 3.286599999999999938e-02 1.296558000000000099e+00 9.351930000000000520e-01 -5.457579999999999654e-01 -9.430099999999999594e-02 9.425740000000000229e-01 1.660969999999999946e-01 1.585274999999999990e+00 8.971799999999999775e-01 -7.401480000000000281e-01 7.406660000000000466e-01 2.091028000000000109e+00 6.155279999999999641e-01 1.790399999999999978e-02 -1.265130000000000088e+00 1.666168000000000093e+00 -4.845889999999999920e-01 -1.954166999999999987e+00 -2.682584999999999997e+00