6.725539999999999852e-01 -8.286369999999999569e-01 -3.052199999999999913e-01 -4.555000000000000021e-03 -1.074520000000000058e-01 -4.449629999999999974e-01 1.361064999999999969e+00 1.103719999999999979e-01 1.370059999999999889e-01 1.312140000000000084e+00 -1.131834000000000007e+00 -1.020253999999999994e+00 -3.471199999999999980e-02 1.995399999999999952e-01 8.137760000000000549e-01 3.948860000000000148e-01 -7.936299999999999466e-01 -3.942649999999999766e-01 -3.833539999999999726e-01 -2.283100000000000060e-02 8.783530000000000504e-01 -1.551673000000000080e+00 -1.024497999999999909e+00 -5.075999999999999783e-03 -5.248810000000000420e-01 -2.675509999999999833e-01 7.589339999999999975e-01 -1.094599999999999913e-02 1.795180000000000109e-01 5.911530000000000395e-01 9.283199999999999785e-02 -3.162920000000000176e-01 5.468060000000000143e-01 -5.392660000000000231e-01 -1.051271999999999984e+00 5.160099999999999687e-01 6.410080000000000222e-01 -6.654699999999999505e-02 -4.465430000000000232e-01 -8.300539999999999585e-01 -1.464119999999999866e-01 -1.247335000000000083e+00 -2.248640000000000083e-01 6.088899999999999868e-02 9.056699999999999473e-02 9.040939999999999532e-01 4.533369999999999900e-01 1.308364000000000082e+00 6.515490000000000448e-01 -6.148489999999999789e-01 -1.632490000000000052e-01 3.962870000000000004e-01 1.303459999999999896e-01 -2.052599999999999911e-02 -4.617769999999999930e-01 -8.509799999999999309e-02 -1.027983000000000091e+00 5.729370000000000296e-01 -3.276220000000000243e-01 8.756209999999999827e-01 -3.316729999999999956e-01 4.969120000000000203e-01 8.369400000000000173e-01 -9.185999999999999721e-02 -1.378738000000000019e+00 -6.381299999999999473e-02 5.376269999999999660e-01 7.644900000000000306e-02 5.009430000000000271e-01 1.134379999999999972e-01 2.308219999999999994e-01 -1.327699999999999991e-01 -9.601700000000000512e-02 -5.603190000000000115e-01 -5.804089999999999527e-01 -7.784360000000000168e-01 5.387640000000000207e-01 -4.296110000000000206e-01 7.971380000000000132e-01 4.371800000000000130e-01 -4.517450000000000077e-01 -4.853379999999999916e-01 -1.889089999999999936e-01 9.052339999999999831e-01 -6.090959999999999708e-01 6.912059999999999871e-01 -1.068551000000000029e+00 -1.471399999999999965e-02 8.312770000000000437e-01 -3.683190000000000075e-01 -4.418460000000000165e-01 5.963159999999999572e-01 -1.900689999999999880e-01 -6.030830000000000357e-01 -1.587169000000000052e+00 1.726330000000000087e-01 -1.479939999999999867e-01 1.152123000000000008e+00 1.345469999999999999e-01 -1.012399999999999932e-02 2.581600000000000006e-01 -1.362619999999999942e-01 -3.087409999999999877e-01 -2.298060000000000103e-01 -7.078699999999999992e-01 -1.271365000000000078e+00 1.425375999999999976e+00 1.146401999999999921e+00 6.494649999999999590e-01 -2.939350000000000018e-01 -6.554300000000000403e-02 -2.379000000000000038e-03 -2.717599999999999877e-02 -8.105609999999999760e-01 -9.992469999999999963e-01 1.901720000000000077e-01 -7.810070000000000068e-01 2.390319999999999945e-01 -1.220612000000000030e+00 -9.672340000000000382e-01 1.756260000000000043e-01 5.515400000000000302e-01 2.673019999999999841e-01 -9.920860000000000234e-01 -7.631999999999999895e-01 -3.409039999999999848e-01 -7.167900000000000660e-02 -5.078179999999999916e-01 3.078879999999999950e-01 3.737860000000000071e-01 4.947929999999999828e-01 -2.802999999999999936e-01 -9.207739999999999814e-01 -8.409799999999999498e-01 -5.608549999999999924e-01 -8.088099999999999457e-02 6.752400000000000069e-02 -9.304600000000000370e-02 5.079519999999999591e-01 7.524389999999999690e-01 2.322899999999999965e-01 1.625861999999999918e+00 3.596570000000000045e-01 1.578797000000000006e+00 -1.060139999999999971e-01 -3.238699999999999912e-02 -5.953929999999999501e-01 3.677340000000000053e-01 -1.080139999999999989e-01 -1.697889999999999955e-01 3.523310000000000053e-01 -5.038799999999999946e-01 -4.248080000000000189e-01 -8.715870000000000006e-01 6.521050000000000457e-01 1.649770000000000125e-01 5.361650000000000027e-01 4.185130000000000239e-01 3.652500000000000191e-02 5.528999999999999887e-02 1.277762999999999982e+00 1.694085999999999981e+00 6.221889999999999921e-01 -5.869599999999999818e-02 4.483900000000000108e-01 -7.930209999999999759e-01 4.905300000000000216e-01 -6.255159999999999609e-01 -7.592959999999999710e-01 -4.215789999999999815e-01 -1.409090000000000065e-01 1.617919999999999914e-01 1.813299999999999981e-02 5.495799999999999574e-01 -4.202949999999999742e-01 -5.038160000000000416e-01 1.293989999999999863e-01 3.058290000000000175e-01 1.788359999999999950e-01 1.190979999999999955e-01 1.372200000000000086e-01 1.399289999999999978e-01 -2.669619999999999771e-01 -7.860260000000000025e-01 6.174910000000000121e-01 -8.201319999999999721e-01 -5.486379999999999590e-01 1.036723999999999979e+00 3.404150000000000231e-01 1.401534000000000058e+00 2.201699999999999838e-02 2.435500000000000165e-02 -7.080030000000000490e-01 2.922770000000000090e-01 -3.600280000000000147e-01 -3.583930000000000171e-01 -2.501740000000000075e-01 7.695340000000000513e-01 -6.905149999999999899e-01 -6.488800000000000123e-01 1.923989999999999867e-01 -1.008959999999999996e-01 -4.404770000000000074e-01 1.246615999999999946e+00 6.156760000000000010e-01 -5.160460000000000047e-01 8.726390000000000535e-01 9.472600000000000464e-02 -1.856180000000000052e-01 7.302570000000000450e-01 2.098879999999999912e-01 5.389359999999999706e-01 4.342599999999999932e-02 1.057817000000000007e+00 3.981990000000000252e-01 7.322499999999999842e-02 2.457429999999999892e-01 1.705000000000000127e-01 5.837919999999999776e-01 -4.694690000000000252e-01 5.046899999999999720e-01 -1.729809999999999959e-01 1.126650000000000013e-01 -1.558378999999999959e+00 6.373510000000000009e-01 -2.709000000000000036e-03 1.816220000000000057e-01 -3.803150000000000142e-01 3.352100000000000218e-02 -1.078800999999999899e+00 -1.181279999999999969e-01 5.518920000000000492e-01 4.584929999999999839e-01 2.137300000000000033e-01 4.612680000000000113e-01 -1.645230000000000026e-01 -1.021106999999999987e+00 8.644859999999999767e-01 -9.385329999999999506e-01 9.074050000000000171e-01 2.720999999999999894e-03 -2.642399999999999749e-01 -2.613659999999999872e-01 1.180139999999999939e-01 -1.388620000000000132e-01 -2.644499999999999976e-02 -3.664799999999999724e-01 1.551828999999999903e+00 -4.053579999999999961e-01 -2.958660000000000179e-01 1.196131000000000055e+00 -3.586880000000000068e-01 5.530589999999999673e-01 7.313300000000000356e-02 9.615510000000000446e-01 3.958200000000000052e-01 7.824090000000000211e-01 -6.907919999999999616e-01 3.506420000000000092e-01 -1.975520000000000054e-01 4.542530000000000179e-01 9.429300000000000181e-02 9.369450000000000278e-01 -1.290624999999999911e+00 3.566810000000000258e-01 3.053370000000000251e-01 -1.143509999999999943e-01 5.050299999999999928e-02 3.824969999999999759e-01 -7.662700000000000067e-02 -2.033000000000000085e-01 4.532089999999999730e-01 -8.478890000000000038e-01 -1.824858000000000091e+00 -9.693169999999999842e-01 -1.520076999999999900e+00
1.473127999999999993e+00 1.052056000000000102e+00 -5.761640000000000095e-01 7.087670000000000359e-01 8.792389999999999928e-01 1.106511000000000022e+00 4.200059999999999905e-01 4.413239999999999941e-01 -8.147370000000000445e-01 -6.003669999999999840e-01 -1.227729999999999988e+00 1.990174000000000110e+00 -2.082574000000000147e+00 -8.345519999999999605e-01 2.445662000000000003e+00 5.602629999999999555e-01 3.054640000000000133e-01 -3.884870000000000267e-01 3.890739999999999754e-01 -5.637299999999999950e-02 -7.666199999999999681e-01 -4.182069999999999954e-01 1.697829999999999895e-01 1.327925000000000022e+00 -2.329010999999999942e+00 4.287810000000000232e-01 1.193259000000000070e+00 9.641760000000000330e-01 -5.261689999999999978e-01 3.539220000000000144e-01 -1.647679999999999978e-01 -7.990589999999999637e-01 7.522489999999999455e-01 1.818851999999999913e+00 7.705290000000000195e-01 8.710550000000000237e-01 3.670600000000000251e-02 1.018426000000000053e+00 7.749489999999999990e-01 -3.960139999999999771e-01 -1.399405999999999928e+00 1.229117999999999933e+00 1.725848000000000049e+00 -5.347359999999999891e-01 5.572740000000000471e-01 -4.079829999999999846e-01 -1.018109999999999987e-01 8.214620000000000255e-01 -1.016520000000000062e-01 2.317599999999999938e-01 -1.030872999999999928e+00 -1.935626000000000069e+00 -7.177489999999999704e-01 -2.466329999999999911e-01 2.025079999999999936e-01 -3.919369999999999798e-01 -1.566087999999999925e+00 -1.105669999999999931e+00 -9.196760000000000490e-01 1.315285999999999955e+00 -9.820140000000000535e-01 -8.035599999999999687e-02 3.501380000000000048e-01 2.909820000000000184e-01 7.510320000000000329e-01 4.444350000000000245e-01 -1.994779999999999887e-01 -9.643929999999999447e-01 5.430070000000000174e-01 -4.119990000000000041e-01 1.556859999999999911e-01 -1.689518999999999993e+00 -1.163259999999999988e-01 -1.059209999999999985e+00 -8.145900000000000363e-02 -8.500440000000000218e-01 3.599760000000000182e-01 4.341749999999999776e-01 3.665370000000000017e-01 -8.500389999999999890e-01 -1.156659000000000104e+00 8.180800000000000571e-02 5.183149999999999702e-01 -3.121229999999999838e-01 5.760800000000000365e-01 -9.831959999999999589e-01 -2.232651000000000163e+00 -2.456619999999999915e-01 -1.798589999999999911e-01 -2.332609999999999850e+00 -5.447999999999999510e-01 -1.250188999999999995e+00 -1.849760000000000071e+00 1.070464000000000082e+00 -1.167793000000000081e+00 5.943600000000000272e-02 -2.303739999999999954e-01 8.042019999999999724e-01 1.248410999999999937e+00 5.205070000000000530e-01 -6.423429999999999973e-01 -5.928579999999999961e-01 1.388444000000000011e+00 -5.214039999999999786e-01 5.047829999999999817e-01 -1.253699999999999953e-02 5.798950000000000493e-01 -2.467209999999999959e-01 6.053039999999999532e-01 4.575679999999999747e-01 -2.428929999999999978e-01 6.764829999999999455e-01 -2.097529999999999950e-01 2.886429999999999829e-01 1.695480000000000043e-01 2.213809999999999945e-01 3.963880000000000181e-01 2.782220000000000248e-01 5.245999999999999795e-03 -7.530660000000000132e-01 -3.648460000000000036e-01 -2.418289999999999884e-01 1.695230000000000070e-01 1.741271999999999931e+00 3.132860000000000089e-01 5.698079999999999812e-01 6.782259999999999955e-01 7.758909999999999973e-01 -8.568510000000000293e-01 2.990729999999999777e-01 1.426099999999999937e-02 1.118627000000000038e+00 -5.350169999999999648e-01 -4.995450000000000168e-01 -8.151890000000000525e-01 3.892900000000000249e-01 -4.942960000000000131e-01 2.312639999999999973e-01 -3.226849999999999996e-01 -4.096290000000000209e-01 -6.148639999999999661e-01 1.880471999999999921e+00 3.290370000000000239e-01 2.151695000000000135e+00 1.014949000000000101e+00 -4.708149999999999835e-01 -9.298089999999999966e-01 3.669680000000000164e-01 -9.870550000000000157e-01 -3.022630000000000039e-01 1.064893000000000089e+00 -2.417032999999999987e+00 -1.412155999999999967e+00 1.381175000000000042e+00 3.468419999999999837e-01 -2.298509999999999998e-01 -2.034451999999999927e+00 5.782519999999999882e-01 7.289179999999999549e-01 -7.601399999999999824e-02 2.751310000000000144e-01 -1.720830000000000137e-01 -3.701019999999999865e-01 -2.171319999999999917e-01 -3.622500000000000026e-02 -1.114015999999999895e+00 1.331434999999999924e+00 6.662409999999999721e-01 -2.593860000000000054e-01 -1.247690000000000049e-01 -4.891000000000000382e-03 1.484507000000000021e+00 6.365539999999999532e-01 3.243800000000000155e-02 3.609799999999999814e-02 4.234519999999999951e-01 4.573450000000000015e-01 -3.142679999999999918e-01 7.844520000000000381e-01 -4.768120000000000136e-01 4.078700000000000103e-01 2.621870000000000034e-01 -7.215639999999999832e-01 -1.115855000000000041e+00 1.109326999999999952e+00 1.945359999999999867e-01 1.828286999999999995e+00 -2.194899999999999907e-01 -1.003478000000000092e+00 4.452820000000000111e-01 2.062170000000000114e-01 2.722060000000000035e-01 6.464619999999999811e-01 1.442849000000000048e+00 -6.253130000000000077e-01 -5.020069999999999810e-01 -2.536550000000000193e-01 2.111619999999999886e-01 -1.511887999999999899e+00 9.801400000000000390e-02 3.902000000000000086e-03 6.939239999999999853e-01 8.291319999999999801e-01 -4.710529999999999995e-01 2.047788999999999859e+00 1.475354000000000054e+00 -4.468260000000000010e-01 -7.525279999999999747e-01 1.003300000000000025e-02 6.209909999999999597e-01 4.510410000000000252e-01 1.158887000000000000e+00 1.468347000000000069e+00 -3.126780000000000115e-01 6.685229999999999784e-01 8.672999999999999599e-01 -9.386520000000000419e-01 -8.402209999999999956e-01 3.223559999999999759e-01 -5.774660000000000348e-01 -8.701799999999999813e-02 -1.384489999999999998e+00 2.500000000000000139e-02 -1.459181000000000061e+00 5.480410000000000004e-01 2.219389999999999974e-01 6.581059999999999688e-01 2.973990000000000244e-01 -1.773589999999999889e-01 -4.491370000000000084e-01 1.827550000000000008e-01 -5.764880000000000004e-01 -5.194870000000000321e-01 1.469444999999999890e+00 -7.444939999999999891e-01 1.664732000000000101e+00 -2.088671999999999862e+00 -6.272099999999999898e-02 -8.158640000000000336e-01 5.038550000000000528e-01 -4.449819999999999887e-01 -3.038560000000000150e-01 -4.765380000000000171e-01 -6.371029999999999749e-01 1.008619999999999933e-01 -9.300559999999999938e-01 -2.369900000000000062e-01 -1.019242999999999899e+00 -2.534540000000000126e-01 -5.420150000000000245e-01 8.856589999999999741e-01 -1.876140000000000030e-01 7.860089999999999577e-01 4.902690000000000103e-01 8.734920000000000462e-01 -2.013237999999999861e+00 -4.095469999999999944e-01 -1.260045999999999999e+00 -2.122900000000000065e-01 -5.246290000000000120e-01 1.774585999999999997e+00 -1.382700000000000040e+00 2.784490000000000021e-01 -1.086572000000000093e+00 1.182900000000000063e-01 1.399785999999999975e+00 4.508969999999999922e-01 1.512709999999999888e-01 3.677679999999999838e-01 -7.928239999999999732e-01 -5.669279999999999875e-01 7.202359999999999873e-01 1.154187000000000074e+00 -6.495189999999999575e-01 -6.044840000000000213e-01 -1.890165000000000095e+00
9.736080000000000290e-01 8.288050000000000139e-01 1.607912000000000008e+00 5.052640000000000464e-01 -5.005610000000000337e-01 3.097389999999999866e-01 1.674519000000000091e+00 1.969224000000000085e+00 -1.002310000000000034e+00 -1.540216999999999947e+00 -1.183173999999999948e+00 1.419313999999999965e+00 5.400300000000000100e-01 6.685299999999999576e-02 1.965919999999999890e-01 1.934266999999999959e+00 -5.048669999999999547e-01 -5.933479999999999865e-01 9.613000000000000017e-03 -3.725789999999999935e-01 -1.290610000000000035e+00 -1.198520000000000002e-01 -5.811579999999999524e-01 1.765401999999999916e+00 6.948000000000000183e-03 -1.036035999999999957e+00 -5.917769999999999975e-01 -1.798229999999999995e+00 3.227499999999999813e-01 1.772634000000000043e+00 1.455930000000000002e-01 1.754002000000000061e+00 7.903059999999999530e-01 -7.669350000000000334e-01 -1.227280000000000038e-01 -5.544390000000000152e-01 7.192389999999999617e-01 -1.381030000000000035e-01 -2.009670000000000067e-01 1.004536000000000096e+00 4.731400000000000050e-01 -1.699110000000000065e-01 -7.372499999999999887e-02 8.604340000000000321e-01 -6.658309999999999507e-01 -4.706170000000000075e-01 1.186495999999999995e+00 4.959109999999999907e-01 -5.944409999999999972e-01 -1.007797000000000054e+00 -2.071696000000000204e+00 -6.755649999999999711e-01 9.542749999999999844e-01 1.484250999999999987e+00 -4.213000000000000078e-01 6.571129999999999471e-01 -1.870756000000000085e+00 8.102669999999999595e-01 -1.609504999999999963e+00 1.399658999999999986e+00 -1.514780999999999933e+00 1.139404000000000083e+00 1.041870000000000018e-01 -9.492930000000000534e-01 -7.995870000000000477e-01 5.175870000000000193e-01 -9.852250000000000174e-01 1.002318999999999960e+00 7.541619999999999990e-01 1.776656999999999931e+00 -3.986359999999999904e-01 -1.469184000000000045e+00 -1.549709999999999976e-01 -4.825519999999999810e-01 7.895889999999999853e-01 8.059450000000000225e-01 1.657830000000000137e-01 -6.676450000000000440e-01 -3.458229999999999915e-01 -8.401410000000000267e-01 -4.864149999999999863e-01 1.533442999999999889e+00 -9.003440000000000332e-01 -2.867279999999999829e-01 -3.371620000000000172e-01 -4.314509999999999734e-01 4.724300000000000027e-02 -4.051480000000000081e-01 -5.893819999999999615e-01 1.101828999999999947e+00 1.104875000000000052e+00 4.534369999999999790e-01 1.394509999999999916e-01 -6.580089999999999550e-01 6.234910000000000174e-01 -3.197809999999999819e-01 -3.380319999999999991e-01 -4.579480000000000217e-01 -1.025798999999999905e+00 -1.027506000000000030e+00 1.193788999999999989e+00 -1.161790000000000045e-01 -9.420939999999999870e-01 -5.027110000000000190e-01 -8.767179999999999973e-01 2.932099999999999984e-02 7.319599999999999718e-02 1.468559999999999865e-01 -5.142910000000000537e-01 1.034729999999999955e-01 3.398530000000000162e-01 -1.053990000000000066e-01 7.688960000000000239e-01 2.219339999999999924e-01 -1.772350000000000037e-01 4.926260000000000083e-01 -2.795900000000000052e-01 6.987929999999999975e-01 8.210089999999999888e-01 1.049741999999999953e+00 1.217705999999999955e+00 3.509959999999999747e-01 8.568980000000000485e-01 -6.510299999999999421e-02 -4.508229999999999738e-01 6.407499999999999307e-02 -6.606530000000000458e-01 -6.806050000000000155e-01 -2.318399999999999975e-02 4.977230000000000265e-01 -7.067000000000000365e-03 2.053069999999999895e-01 4.181610000000000049e-01 -6.311660000000000048e-01 -4.381079999999999974e-01 -2.899180000000000090e-01 -3.046710000000000251e-01 1.233699000000000101e+00 2.520400000000000071e-02 -7.359569999999999723e-01 3.674279999999999768e-01 1.122460000000000013e+00 9.820020000000000415e-01 -8.705159999999999565e-01 -2.014831000000000039e+00 1.650276000000000076e+00 -2.224939999999999973e-01 1.006513999999999909e+00 -8.753830000000000222e-01 2.185010000000000008e-01 9.690600000000000325e-01 -7.838549999999999685e-01 -4.590839999999999921e-01 5.252080000000000082e-01 -1.951769999999999894e-01 2.482552000000000092e+00 3.090760000000000174e-01 -8.563099999999999878e-02 -8.899500000000000466e-02 1.141947000000000045e+00 1.211050000000000043e-01 7.240099999999999314e-02 2.118589999999999918e-01 -5.228340000000000209e-01 -4.114019999999999899e-01 1.898498000000000019e+00 -1.055174000000000056e+00 4.987119999999999886e-01 6.876649999999999707e-01 6.788570000000000437e-01 -7.127919999999999812e-01 -1.373531000000000057e+00 -7.670179999999999776e-01 -3.247940000000000271e-01 -7.823029999999999706e-01 5.006460000000000354e-01 -6.854320000000000412e-01 4.063800000000000190e-01 1.084654000000000007e+00 -3.560189999999999744e-01 2.686259999999999759e-01 -2.711830000000000074e-01 -5.557399999999999840e-02 -3.341169999999999973e-01 -1.925969999999999904e-01 -2.284940000000000027e-01 -1.428100000000000029e-02 6.486750000000000016e-01 -5.442099999999999715e-01 -7.092900000000000593e-02 -8.673410000000000286e-01 2.417680000000000107e-01 -4.843200000000000283e-02 -6.457260000000000222e-01 1.194547000000000025e+00 5.641040000000000498e-01 2.397849999999999981e-01 -1.613512999999999975e+00 -5.696520000000000472e-01 -8.462669999999999915e-01 -3.033529999999999838e-01 -1.965550000000000075e-01 -2.474750000000000005e-01 -1.714289999999999980e-01 -9.414400000000000546e-01 -3.199110000000000009e-01 -1.109291999999999945e+00 -2.643799999999999970e-02 -4.807100000000000262e-02 7.977689999999999504e-01 -2.699420000000000153e-01 1.927979999999999972e-01 1.205040000000000000e-01 -2.530009999999999759e-01 -2.182590000000000086e-01 -1.163915000000000033e+00 -1.102799000000000085e+00 -1.483309999999999906e-01 2.539080000000000226e-01 9.016359999999999930e-01 1.284420000000000006e-01 -1.569349999999999912e-01 2.436830000000000107e-01 2.135259999999999936e-01 5.522699999999999831e-02 -3.704720000000000235e-01 1.317989999999999995e-01 8.941100000000000436e-02 1.424244999999999983e+00 -2.947850000000000192e-01 4.246699999999999781e-02 -5.933950000000000058e-01 1.274807999999999941e+00 2.498940000000000050e-01 -7.024979999999999558e-01 3.605180000000000051e-01 -5.713009999999999478e-01 -2.167610000000000092e-01 -7.821599999999999664e-01 6.059430000000000094e-01 3.392890000000000073e-01 1.035557999999999979e+00 -1.127744999999999997e+00 1.339909999999999990e-01 -2.497089999999999865e-01 6.252189999999999692e-01 1.017330000000000040e-01 -1.288300000000000001e-01 7.011060000000000070e-01 -3.142690000000000206e-01 -1.475579999999999947e-01 -8.361300000000000676e-02 -2.167060000000000097e-01 -3.062409999999999854e-01 -4.382780000000000009e-01 1.448689999999999978e-01 1.881299999999999986e-02 -4.969259999999999788e-01 8.660550000000000193e-01 1.172070000000000056e-01 3.743319999999999981e-01 -8.308379999999999654e-01 -3.697099999999999692e-02 6.940200000000000535e-02 -3.844710000000000072e-01 3.987290000000000001e-01 -1.704650999999999916e+00 -6.416539999999999466e-01 9.847310000000000230e-01 9.983710000000000084e-01 -2.411900000000000155e-02 -4.401570000000000205e-01 -4.623579999999999912e-01 -1.473651000000000044e+00 -1.278246999999999911e+00 4.904990000000000183e-01
-1.428954000000000057e+00 1.680240000000000067e-01 -1.091819000000000095e+00 -4.268879999999999897e-01 4.580000000000000182e-01 3.362740000000000173e-01 -2.042000000000000065e-02 2.932179999999999787e-01 -5.836899999999999727e-02 -5.573240000000000416e-01 -2.647079999999999989e-01 -1.982160000000000033e-01 4.010349999999999748e-01 -5.485459999999999781e-01 2.121979999999999977e-01 1.412233000000000072e+00 9.058800000000000185e-02 -7.700869999999999660e-01 -1.455551000000000039e+00 1.706461000000000006e+00 -9.362999999999999795e-03 3.033500000000000085e-02 -6.528009999999999646e-01 9.738499999999999934e-01 -9.002229999999999954e-01 -6.158500000000000085e-02 -5.457910000000000261e-01 -8.988000000000000156e-02 -1.955300000000000094e-01 -2.633539999999999770e-01 4.756900000000000017e-01 2.935180000000000011e-01 -9.015429999999999833e-01 3.414900000000000158e-01 -1.100818999999999992e+00 -1.890965000000000007e+00 6.698319999999999830e-01 -1.540091000000000099e+00 -1.842590000000000061e-01 2.408530000000000115e-01 5.117300000000000182e-01 -9.602110000000000367e-01 1.258809000000000067e+00 3.953760000000000052e-01 -2.226160000000000083e-01 2.114739999999999953e-01 4.785200000000000009e-01 -1.457705999999999946e+00 -6.601400000000000323e-02 1.981648999999999994e+00 -1.478433000000000108e+00 1.066809999999999981e-01 -1.205278999999999989e+00 1.307908000000000071e+00 3.443919999999999759e-01 2.745799999999999907e-01 -7.330360000000000209e-01 4.476539999999999964e-01 1.046507000000000076e+00 -7.911500000000000477e-02 -3.072679999999999856e-01 4.626319999999999877e-01 3.837169999999999748e-01 4.544290000000000274e-01 -3.245620000000000172e-01 2.590240999999999794e+00 1.011160999999999976e+00 -1.282168999999999892e+00 8.631210000000000271e-01 1.603759999999999908e-01 1.636249999999999927e-01 -4.404109999999999969e-01 -1.098384999999999945e+00 -1.156500000000000063e-02 -1.664059999999999984e-01 4.821920000000000095e-01 -1.428780000000000050e-01 8.466740000000000377e-01 -3.896499999999999964e-01 4.359890000000000154e-01 1.043489000000000111e+00 -2.376739999999999964e-01 -1.803790000000000004e+00 1.199505000000000043e+00 -4.675999999999999601e-03 -1.185203999999999924e+00 9.116720000000000379e-01 -1.125167999999999946e+00 5.013499999999999623e-01 -8.955089999999999995e-01 7.741710000000000536e-01 4.414549999999999863e-01 -2.253633999999999915e+00 6.426000000000000288e-03 1.000075000000000047e+00 -2.357994999999999841e+00 6.010259999999999492e-01 -2.285429999999999962e-01 -4.334319999999999840e-01 4.596149999999999958e-01 -1.140028000000000041e+00 -3.067239999999999966e-01 -1.457492999999999927e+00 2.515729999999999911e-01 -7.506410000000000027e-01 -6.741530000000000022e-01 1.164757999999999960e+00 3.370900000000000285e-02 1.119729999999999892e+00 -2.480420000000000125e-01 1.347250000000000114e-01 -1.496385000000000076e+00 2.127370000000000094e-01 7.653500000000000580e-02 5.251839999999999842e-01 -5.905139999999999834e-01 -3.595559999999999867e-01 -8.540100000000000469e-02 4.314109999999999889e-01 6.747630000000000017e-01 5.929809999999999803e-01 7.957600000000000229e-01 -6.719140000000000112e-01 1.685659999999999936e+00 -2.521229999999999860e-01 -9.294200000000000239e-01 -1.053970999999999991e+00 -1.812327000000000021e+00 1.399337000000000053e+00 -1.546270000000000033e+00 -9.611020000000000119e-01 -6.246439999999999770e-01 -4.096609999999999974e-01 -2.757220000000000226e-01 -6.236190000000000344e-01 -1.348840000000000039e+00 -3.033020000000000160e-01 1.379248999999999947e+00 -2.301590000000000025e-01 8.445970000000000422e-01 -1.241119000000000083e+00 -6.196960000000000246e-01 -4.152029999999999887e-01 -1.198536000000000046e+00 1.671270000000000033e+00 -6.742230000000000167e-01 5.761370000000000102e-01 2.417164000000000090e+00 -1.676340000000000052e-01 9.307039999999999758e-01 -3.095559999999999978e-01 1.154290000000000038e+00 -4.872940000000000049e-01 -1.555020000000000013e-01 1.690361000000000002e+00 2.026216999999999935e+00 4.904209999999999958e-01 3.654870000000000063e-01 -4.374319999999999875e-01 -7.564999999999999503e-02 1.024830000000000046e-01 1.020723999999999965e+00 -1.717756000000000061e+00 1.349102999999999941e+00 2.189761999999999986e+00 6.301900000000000557e-02 -6.199189999999999978e-01 1.136285999999999907e+00 -1.525499999999999946e-02 -5.621410000000000018e-01 -4.309930000000000150e-01 -1.359936000000000034e+00 -1.225946999999999898e+00 -1.209648000000000057e+00 2.808000000000000166e-03 -8.293200000000000571e-02 -5.046720000000000095e-01 8.181700000000000084e-02 -7.702890000000000015e-01 5.847200000000000314e-02 5.905909999999999771e-01 1.571841000000000044e+00 -2.884240000000000137e-01 -7.004099999999999770e-01 -9.154440000000000355e-01 1.147809999999999941e-01 1.156379000000000046e+00 -1.596543999999999963e+00 9.957129999999999592e-01 1.219049999999999967e+00 8.541490000000000471e-01 -3.885950000000000237e-01 -8.923440000000000261e-01 1.187419000000000002e+00 -8.783990000000000409e-01 -7.949950000000000072e-01 -6.487049999999999761e-01 -1.149327999999999905e+00 5.894019999999999815e-01 -1.536500999999999895e+00 8.460509999999999975e-01 2.755639999999999756e-01 3.559510000000000174e-01 4.450599999999999695e-02 -3.547800000000000259e-02 1.117490000000000011e-01 1.044532999999999934e+00 -1.570357000000000003e+00 1.835304000000000046e+00 2.202282999999999991e+00 -2.829980000000000273e-01 2.114949999999999886e-01 2.189510000000000067e-01 4.454700000000000326e-02 -1.437470000000000026e+00 9.192999999999999783e-02 4.027180000000000204e-01 -8.429370000000000474e-01 1.369288999999999978e+00 1.316746999999999890e+00 4.750949999999999895e-01 1.826669999999999960e-01 1.307906999999999931e+00 -4.478889999999999816e-01 -2.246246000000000187e+00 2.569259999999999877e-01 -4.256679999999999908e-01 -1.576670000000000016e-01 -3.905060000000000198e-01 3.112099999999999866e-01 -2.239739000000000146e+00 2.252929999999999933e-01 1.730788999999999911e+00 1.507486000000000104e+00 3.471259999999999901e-01 -8.606549999999999478e-01 2.974040000000000017e-01 -8.296740000000000226e-01 -1.155791000000000013e+00 2.454686000000000146e+00 -1.542157000000000000e+00 4.451309999999999989e-01 -1.381812999999999958e+00 -2.563999999999999873e-03 8.071970000000000534e-01 -4.865869999999999918e-01 -3.543729999999999936e-01 -1.142619000000000051e+00 2.333609000000000044e+00 9.231070000000000109e-01 2.460380000000000067e-01 -5.950530000000000541e-01 -9.269720000000000182e-01 -1.625486999999999904e+00 2.461230000000000084e-01 3.116400000000000073e-02 2.423039999999999916e-01 -1.149092000000000002e+00 -6.237479999999999691e-01 1.021687999999999930e+00 5.742760000000000087e-01 1.108640000000000070e+00 1.350580000000000114e-01 1.062049999999999939e-01 2.110889999999999989e-01 1.097234000000000043e+00 1.349045999999999967e+00 -2.610870000000000135e-01 1.697648000000000046e+00 -1.549329999999999874e-01 3.754000000000000115e-01 6.196900000000000325e-02 -5.664460000000000051e-01 9.498469999999999969e-01 -1.798960000000000004e-01 5.659939999999999971e-01