1.036737093600000037e+01 0.000000000000000000e+00 0.000000000000000000e+00 -1.646713799999999922e-02 1.048623445800000020e+01 0.000000000000000000e+00 -1.780184151999999909e+00 2.460920299999999963e-02 1.059273942699999971e+01
1.039406217900000051e+01 0.000000000000000000e+00 0.000000000000000000e+00 -3.996803000000000161e-03 1.049581878500000087e+01 0.000000000000000000e+00 -1.814303459000000007e+00 1.921135900000000077e-02 1.060285434100000046e+01
1.024995951500000047e+01 0.000000000000000000e+00 0.000000000000000000e+00 -3.941392000000000159e-03 1.035030537299999942e+01 0.000000000000000000e+00 -1.789150062999999902e+00 1.894501399999999960e-02 1.045585699499999954e+01
1.030733652700000036e+01 0.000000000000000000e+00 0.000000000000000000e+00 -3.963455000000000276e-03 1.040824409800000083e+01 0.000000000000000000e+00 -1.799165330999999979e+00 1.905106399999999950e-02 1.051438657499999962e+01
1.037472397300000004e+01 0.000000000000000000e+00 0.000000000000000000e+00 -1.647881699999999977e-02 1.049367179899999947e+01 0.000000000000000000e+00 -1.781446743999999915e+00 2.462665799999999919e-02 1.060025230599999979e+01
1.032512288400000067e+01 0.000000000000000000e+00 0.000000000000000000e+00 -3.970294000000000080e-03 1.042620458200000044e+01 0.000000000000000000e+00 -1.802269973000000025e+00 1.908393800000000168e-02 1.053253021799999978e+01
1.044156530599999932e+01 0.000000000000000000e+00 0.000000000000000000e+00 -4.015069999999999924e-03 1.054378696100000035e+01 0.000000000000000000e+00 -1.822595221000000043e+00 1.929915899999999976e-02 1.065131169300000025e+01
1.039321028300000016e+01 0.000000000000000000e+00 0.000000000000000000e+00 -3.996475999999999675e-03 1.049495854799999961e+01 0.000000000000000000e+00 -1.814154759000000006e+00 1.920978400000000058e-02 1.060198533199999993e+01
1.046836317400000027e+01 0.000000000000000000e+00 0.000000000000000000e+00 -1.662755000000000136e-02 1.058838458800000026e+01 0.000000000000000000e+00 -1.797525556999999941e+00 2.484893000000000171e-02 1.069592705900000063e+01
1.025440448400000015e+01 0.000000000000000000e+00 0.000000000000000000e+00 -1.628770599999999902e-02 1.037197282800000053e+01 0.000000000000000000e+00 -1.760786651000000091e+00 2.434105300000000138e-02 1.047731728199999957e+01
1.031197383299999970e+01 0.000000000000000000e+00 0.000000000000000000e+00 -1.637914700000000015e-02 1.043020221899999989e+01 0.000000000000000000e+00 -1.770671899999999965e+00 2.447770599999999838e-02 1.053613808799999951e+01
1.033799353699999912e+01 0.000000000000000000e+00 0.000000000000000000e+00 -3.975242999999999832e-03 1.043920123700000069e+01 0.000000000000000000e+00 -1.804516570999999958e+00 1.910772700000000143e-02 1.054565941299999920e+01
1.035685282500000071e+01 0.000000000000000000e+00 0.000000000000000000e+00 -1.645043100000000147e-02 1.047559575500000051e+01 0.000000000000000000e+00 -1.778378084000000081e+00 2.458423599999999890e-02 1.058199266999999999e+01
1.041255108600000057e+01 0.000000000000000000e+00 0.000000000000000000e+00 -4.003912999999999570e-03 1.051448869600000080e+01 0.000000000000000000e+00 -1.817530733999999981e+00 1.924553199999999922e-02 1.062171464699999923e+01
1.040895357399999988e+01 0.000000000000000000e+00 0.000000000000000000e+00 -4.002529000000000330e-03 1.051085596399999922e+01 0.000000000000000000e+00 -1.816902781000000022e+00 1.923888299999999829e-02 1.061804486900000022e+01
1.033705562599999972e+01 0.000000000000000000e+00 0.000000000000000000e+00 -1.641898600000000000e-02 1.045557157800000070e+01 0.000000000000000000e+00 -1.774978700999999992e+00 2.453724399999999972e-02 1.056176511500000004e+01
1.035489776300000031e+01 0.000000000000000000e+00 0.000000000000000000e+00 -1.644732600000000169e-02 1.047361827800000000e+01 0.000000000000000000e+00 -1.778042378999999951e+00 2.457959599999999870e-02 1.057999510900000040e+01
1.033560044799999922e+01 0.000000000000000000e+00 0.000000000000000000e+00 -1.641667499999999863e-02 1.045409971599999999e+01 0.000000000000000000e+00 -1.774728832000000089e+00 2.453378900000000029e-02 1.056027830400000056e+01
1.023333205199999973e+01 0.000000000000000000e+00 0.000000000000000000e+00 -1.625423499999999882e-02 1.035065879799999955e+01 0.000000000000000000e+00 -1.757168296999999990e+00 2.429103300000000007e-02 1.045578677199999973e+01
1.033291045200000013e+01 0.000000000000000000e+00 0.000000000000000000e+00 -1.641240199999999955e-02 1.045137887899999996e+01 0.000000000000000000e+00 -1.774266931999999963e+00 2.452740399999999918e-02 1.055752983200000017e+01
1.032164942300000021e+01 0.000000000000000000e+00 0.000000000000000000e+00 -1.639451499999999839e-02 1.043998874100000052e+01 0.000000000000000000e+00 -1.772333297999999946e+00 2.450067400000000006e-02 1.054602400799999984e+01
1.029244928600000009e+01 0.000000000000000000e+00 0.000000000000000000e+00 -3.957729999999999582e-03 1.039321111299999956e+01 0.000000000000000000e+00 -1.796566733999999999e+00 1.902354699999999829e-02 1.049920028500000058e+01
1.041992415800000060e+01 0.000000000000000000e+00 0.000000000000000000e+00 -4.006748000000000080e-03 1.052193394999999931e+01 0.000000000000000000e+00 -1.818817716999999945e+00 1.925915900000000139e-02 1.062923582700000047e+01
1.032221486599999949e+01 0.000000000000000000e+00 0.000000000000000000e+00 -1.639541300000000104e-02 1.044056066699999974e+01 0.000000000000000000e+00 -1.772430390000000022e+00 2.450201600000000146e-02 1.054660174300000008e+01
1.035874799099999954e+01 0.000000000000000000e+00 0.000000000000000000e+00 -3.983223999999999619e-03 1.046015887499999941e+01 0.000000000000000000e+00 -1.808139299999999894e+00 1.914608699999999913e-02 1.056683077399999959e+01
1.042216130999999990e+01 0.000000000000000000e+00 0.000000000000000000e+00 -4.007608000000000177e-03 1.052419300200000052e+01 0.000000000000000000e+00 -1.819208216000000045e+00 1.926329400000000025e-02 1.063151791700000004e+01
1.024700248399999936e+01 0.000000000000000000e+00 0.000000000000000000e+00 -1.627594900000000136e-02 1.036448596299999991e+01 0.000000000000000000e+00 -1.759515651000000069e+00 2.432348299999999991e-02 1.046975437599999914e+01
1.042647058600000065e+01 0.000000000000000000e+00 0.000000000000000000e+00 -1.656100900000000153e-02 1.054601169500000069e+01 0.000000000000000000e+00 -1.790332169000000029e+00 2.474948899999999952e-02 1.065312379999999948e+01
1.033352647999999974e+01 0.000000000000000000e+00 0.000000000000000000e+00 -1.641338000000000172e-02 1.045200197099999961e+01 0.000000000000000000e+00 -1.774372711000000047e+00 2.452886599999999986e-02 1.055815925199999938e+01
1.042059679800000005e+01 0.000000000000000000e+00 0.000000000000000000e+00 -4.007006999999999930e-03 1.052261317399999996e+01 0.000000000000000000e+00 -1.818935127999999901e+00 1.926040299999999886e-02 1.062992197800000049e+01
1.042579367399999946e+01 0.000000000000000000e+00 0.000000000000000000e+00 -4.009005000000000381e-03 1.052786092700000076e+01 0.000000000000000000e+00 -1.819842251999999938e+00 1.927000800000000166e-02 1.063522324700000077e+01
1.044248022700000078e+01 0.000000000000000000e+00 0.000000000000000000e+00 -4.015420999999999921e-03 1.054471084000000047e+01 0.000000000000000000e+00 -1.822754922000000111e+00 1.930085000000000134e-02 1.065224499400000013e+01
1.035723637399999930e+01 0.000000000000000000e+00 0.000000000000000000e+00 -1.645104000000000011e-02 1.047598370100000054e+01 0.000000000000000000e+00 -1.778443943000000083e+00 2.458514700000000164e-02 1.058238455699999925e+01
1.046925036800000086e+01 0.000000000000000000e+00 0.000000000000000000e+00 -4.025715000000000023e-03 1.057174305700000083e+01 0.000000000000000000e+00 -1.827427702000000043e+00 1.935032899999999945e-02 1.067955288299999950e+01
1.038124218199999937e+01 0.000000000000000000e+00 0.000000000000000000e+00 -3.991874000000000290e-03 1.048287328199999990e+01 0.000000000000000000e+00 -1.812065704000000110e+00 1.918766400000000011e-02 1.058977682099999917e+01
1.034832993700000081e+01 0.000000000000000000e+00 0.000000000000000000e+00 -1.643689400000000050e-02 1.046697515099999976e+01 0.000000000000000000e+00 -1.776914616000000002e+00 2.456400599999999934e-02 1.057328451000000058e+01
1.040509695599999951e+01 0.000000000000000000e+00 0.000000000000000000e+00 -4.001046000000000290e-03 1.050696159099999960e+01 0.000000000000000000e+00 -1.816229601000000082e+00 1.923175400000000021e-02 1.061411078100000083e+01
1.032539341500000063e+01 0.000000000000000000e+00 0.000000000000000000e+00 -3.970397999999999983e-03 1.042647776199999932e+01 0.000000000000000000e+00 -1.802317195000000094e+00 1.908443799999999871e-02 1.053280618400000002e+01
1.037482074799999943e+01 0.000000000000000000e+00 0.000000000000000000e+00 -3.989404000000000214e-03 1.047638898299999966e+01 0.000000000000000000e+00 -1.810944831000000033e+00 1.917579499999999895e-02 1.058322639600000059e+01
1.024660845400000042e+01 0.000000000000000000e+00 0.000000000000000000e+00 -1.627532300000000126e-02 1.036408741500000019e+01 0.000000000000000000e+00 -1.759447991999999905e+00 2.432254799999999939e-02 1.046935178000000022e+01
1.036025264000000057e+01 0.000000000000000000e+00 0.000000000000000000e+00 -1.645583100000000062e-02 1.047903454999999973e+01 0.000000000000000000e+00 -1.778961867000000030e+00 2.459230700000000075e-02 1.058546639100000064e+01
1.035332795300000086e+01 0.000000000000000000e+00 0.000000000000000000e+00 -1.644483199999999951e-02 1.047203046999999998e+01 0.000000000000000000e+00 -1.777772826999999944e+00 2.457586900000000019e-02 1.057839117400000006e+01
1.036756609699999920e+01 0.000000000000000000e+00 0.000000000000000000e+00 -1.646744799999999911e-02 1.048643185699999947e+01 0.000000000000000000e+00 -1.780217662999999950e+00 2.460966699999999827e-02 1.059293883099999967e+01
1.023753812800000063e+01 0.000000000000000000e+00 0.000000000000000000e+00 -1.626091600000000026e-02 1.035491309700000073e+01 0.000000000000000000e+00 -1.757890524000000010e+00 2.430101700000000114e-02 1.046008428100000032e+01
1.027113336200000049e+01 0.000000000000000000e+00 0.000000000000000000e+00 -1.631427699999999856e-02 1.038889350500000042e+01 0.000000000000000000e+00 -1.763659171000000025e+00 2.438076299999999974e-02 1.049440981599999922e+01
1.023085965299999955e+01 0.000000000000000000e+00 0.000000000000000000e+00 -3.934047000000000412e-03 1.033101852599999937e+01 0.000000000000000000e+00 -1.785816145999999938e+00 1.890971099999999919e-02 1.043637346200000060e+01
1.032768942400000078e+01 0.000000000000000000e+00 0.000000000000000000e+00 -1.640410900000000005e-02 1.044609799100000025e+01 0.000000000000000000e+00 -1.773370427999999999e+00 2.451501099999999975e-02 1.055219530799999994e+01
1.039241457099999977e+01 0.000000000000000000e+00 0.000000000000000000e+00 -3.996170000000000277e-03 1.049415504699999957e+01 0.000000000000000000e+00 -1.814015866000000088e+00 1.920831300000000116e-02 1.060117363700000048e+01
1.039911876000000035e+01 0.000000000000000000e+00 0.000000000000000000e+00 -1.651756500000000141e-02 1.051834627600000083e+01 0.000000000000000000e+00 -1.785635579000000028e+00 2.468456399999999912e-02 1.062517739299999953e+01
1.039954444900000041e+01 0.000000000000000000e+00 0.000000000000000000e+00 -1.651824099999999948e-02 1.051877684599999974e+01 0.000000000000000000e+00 -1.785708674000000107e+00 2.468557399999999832e-02 1.062561233599999966e+01
