-9.164019014900000002e+02
-9.167241502900000114e+02
-9.120660321399999475e+02
-9.156244258599999739e+02
-9.048586964700000408e+02
-9.084821613100000377e+02
-9.139648684200000162e+02
-9.083519217199999503e+02
-9.066721856000000344e+02
-8.904815970700000207e+02
-9.092556382000000212e+02
-9.098800555399999439e+02
-9.152740203600000086e+02
-8.961221303400000124e+02
-9.164261260299999776e+02
-9.114000907399999960e+02
-9.033518718899999840e+02
-8.954020389900000509e+02
-9.028712162099999432e+02
-9.059682308200000307e+02
-8.998121459300000424e+02
-9.001365369899999678e+02
-9.105962238299999854e+02
-8.979107647700000143e+02
-9.101807591100000536e+02
-9.185175893199999564e+02
-8.936076629100000446e+02
-8.985894129900000280e+02
-9.010621810300000334e+02
-9.092313719700000547e+02
-8.954030169899999692e+02
-9.083270146900000555e+02
-9.072090815599999587e+02
-9.108401220099999591e+02
-9.109639617399999452e+02
-8.946976365199999464e+02
-9.158264288399999487e+02
-8.974366234200000463e+02
-9.046624457899999925e+02
-8.980312486599999602e+02
-9.015224649299999555e+02
-9.143028503399999636e+02
-9.070579989399999477e+02
-9.148376531799999611e+02
-8.915590692199999694e+02
-8.978607863099999804e+02
-9.056854243699999643e+02
-9.119547757899999851e+02
-8.997454482499999813e+02
-9.137409660800000211e+02
-9.235795926399999871e+02
-9.060004397999999810e+02
-8.972099294199999804e+02
-8.934546813599999950e+02
-8.971297310500000322e+02
-9.105625460899999553e+02
-9.200827784900000097e+02
-8.982563593500000252e+02
-9.008462415899999769e+02
-9.058513748699999724e+02
-8.901842645200000561e+02
-9.049208593900000324e+02
-9.025023810599999479e+02
-9.105470584800000324e+02
-9.089654642899999999e+02
-9.083327523000000383e+02
-9.095134811499999614e+02
-8.980012762699999485e+02
-9.059426568899999666e+02
-8.940952654300000404e+02
-9.070350403899999492e+02
-8.913814467099999774e+02
-9.115046871700000111e+02
-9.024147389700000303e+02
-9.061462557300000071e+02
-8.958169446199999584e+02
-8.949325708999999733e+02
-9.096920190900000307e+02
-8.944214067000000341e+02
-9.029572912200000019e+02
-8.971209877300000244e+02
-9.117717713900000263e+02
-8.988741731899999650e+02
-9.077094578300000194e+02
-9.025704749100000299e+02
-9.028953317599999764e+02
-8.921211363800000527e+02
-9.068446870100000297e+02
-8.982032497300000387e+02
-9.026348746099999971e+02
-8.883569572699999526e+02
-9.113627468800000315e+02
-8.920613395300000548e+02
-9.043668253800000230e+02
-8.927317015300000094e+02
-9.138278256400000146e+02
-9.026995799200000192e+02
-9.071436640800000077e+02
-9.052726601499999788e+02
-9.008692786999999953e+02
