1.609369999999999967e-01 -6.590019999999999767e-01 7.240099999999999314e-02 2.432469999999999910e-01 2.159911000000000136e+00 -3.566320000000000157e+00 1.922429999999999972e-01 2.887460000000000027e-01 -1.682164999999999910e+00 1.439605999999999941e+00 -4.374600000000000155e-01 1.651273999999999909e+00 -7.651090000000000391e-01 2.903259999999999730e-01 -7.427110000000000101e-01 2.373129999999999962e-01 4.945189999999999864e-01 -1.432928999999999897e+00 -7.284920000000000284e-01 -1.892636999999999903e+00 -2.542072999999999805e+00 6.546830000000000149e-01 -7.630350000000000188e-01 2.034508999999999901e+00 -3.235631000000000146e+00 -3.299250000000000238e-01 -1.379340000000000011e-01 5.538099999999999967e-02 9.545620000000000216e-01 -1.903161000000000103e+00 -1.383550000000000058e+00 -2.093957000000000068e+00 -2.151994999999999880e+00 -1.331603000000000092e+00 8.685420000000000362e-01 9.400460000000000482e-01 2.737569999999999726e-01 -2.268714000000000119e+00 -1.311830000000000052e+00 -3.519800000000000151e-01 1.376826000000000105e+00 -1.453849999999999865e-01 3.779600000000000182e-01 1.932066000000000061e+00 -1.071882000000000001e+00 1.014280000000000043e-01 -3.533697000000000088e+00 7.289520000000000444e-01 -4.152435999999999794e+00 3.919217000000000173e+00 -8.222829999999999862e-01 -2.855200000000000099e-02 -5.706809999999999938e-01 6.509939999999999616e-01 -1.034030999999999922e+00 -2.140480000000000160e+00 7.483499999999999874e-02 -2.770007000000000108e+00 2.142024000000000150e+00 1.539329999999999865e-01 7.252739999999999743e-01 9.665179999999999882e-01 1.696955999999999909e+00 -3.176820000000000199e-01 -1.422150000000000081e-01 1.980629999999999891e+00 -2.482959999999999889e-01 -6.638939999999999841e-01 2.450504000000000016e+00 -1.938110000000000110e-01 2.136240000000000083e-01 2.018844999999999779e+00 1.421955000000000080e+00 2.528172999999999782e+00 2.356907000000000085e+00 -1.367267999999999928e+00 -2.124890000000000112e-01 -1.571223000000000036e+00 4.452809999999999824e-01 -2.328199999999999825e+00 2.303419999999999912e-01 3.902100000000000013e-01 1.695497999999999950e+00 1.298990000000000089e+00 1.295060000000000100e+00 -9.603530000000000122e-01 1.157386000000000026e+00 -3.664549999999999752e-01 -9.519910000000000316e-01 9.288720000000000310e-01 -8.632760000000000433e-01 -1.376336000000000004e+00 1.317423000000000011e+00 3.856240000000000223e-01 -1.257230999999999987e+00 1.121159999999999934e+00 -1.978277000000000063e+00 2.501200000000000090e-01 1.300758000000000081e+00 2.038750000000000007e-01 -1.417291999999999996e+00 -1.281142000000000003e+00 3.884201000000000015e+00 -2.212435999999999847e+00 9.544550000000000534e-01 -2.185686000000000018e+00 1.864857999999999905e+00 2.080881999999999898e+00 2.956110000000000126e-01 -4.140039999999999831e-01 2.037229999999999874e-01 -1.216460000000000097e+00 7.432549999999999990e-01 -8.633309999999999595e-01 4.867589999999999972e-01 -5.542040000000000299e-01 -6.493389999999999995e-01 1.315177000000000040e+00 1.222493999999999970e+00 -1.117666999999999966e+00 2.665875000000000217e+00 1.854171000000000014e+00 1.107734999999999914e+00 -1.612241000000000035e+00 -4.646839999999999860e-01 7.454610000000000403e-01 -1.257602000000000109e+00 6.894550000000000400e-01 -1.463549999999999907e+00 5.418260000000000298e-01 1.737549999999999928e-01 2.114910000000000068e+00 -9.565899999999999403e-02 -1.043730999999999964e+00 1.781477999999999895e+00 -5.598039999999999683e-01 -5.365419999999999634e-01 1.022089000000000025e+00 3.248269999999999769e-01 6.867630000000000123e-01 1.241573000000000038e+00 2.572659999999999947e+00 1.931491000000000069e+00 -1.618257000000000057e+00 9.654749999999999721e-01 -1.178614000000000051e+00 -2.083327999999999847e+00 2.102993999999999808e+00 -2.760142999999999791e+00 -1.700496000000000008e+00 3.687399999999999706e-02 -1.018073000000000006e+00 -6.658809999999999452e-01 -1.502188000000000079e+00 7.473279999999999923e-01 1.455510000000000137e-01 -7.882559999999999567e-01 2.000872000000000206e+00 1.729336999999999902e+00 1.723540000000000072e+00 -1.315193999999999974e+00 -4.475250000000000061e-01 -8.996129999999999960e-01 1.372108000000000105e+00 2.190670000000000117e-01 -2.452414000000000094e+00 9.841469999999999940e-01 -9.935669999999999780e-01 1.883574999999999999e+00 -1.380319999999999991e+00 -3.430710000000000148e-01 1.817777999999999894e+00 1.856146000000000074e+00 -1.421139999999999903e-01 1.496728999999999976e+00 1.298705999999999916e+00 -2.565259999999999763e-01 -1.635521000000000003e+00 2.425279999999999936e-01 -2.243543999999999983e+00 1.521889000000000047e+00 1.195189000000000057e+00 -1.313050999999999968e+00 1.485420000000000074e-01 -1.658630999999999966e+00 2.373240000000000016e+00 2.355662999999999840e+00 4.436769999999999881e-01 -4.213450000000000251e-01 2.793684999999999974e+00 1.141694999999999904e+00 -1.352174999999999905e+00 -5.076190000000000424e-01 1.763790000000000080e-01 -1.180180000000000007e+00 6.240170000000000439e-01 -4.506399999999999850e-01 1.538623000000000074e+00 7.666439999999999921e-01 9.443500000000000227e-01 1.312661000000000078e+00 -7.607639999999999958e-01 3.781000000000000073e-03 -1.919900000000000079e-02 -4.674780000000000046e-01 -1.738560000000000105e-01 1.426053999999999933e+00 -1.563479999999999870e-01 3.778279999999999972e-01 1.748790000000000067e-01 -6.633400000000000407e-02 1.692355999999999971e+00 8.160669999999999868e-01 -5.338999999999999996e-03 1.203392999999999935e+00 -1.480947000000000013e+00 -2.741790000000000060e-01 -1.049301000000000039e+00 -1.558200000000000029e+00 1.895050000000000068e-01 -5.236020000000000119e-01 7.598499999999999699e-02 -1.558181999999999956e+00 1.363998999999999961e+00 6.685090000000000199e-01 -3.717559999999999754e-01 -1.106249999999999956e+00 -5.684409999999999741e-01 4.566970000000000196e-01 7.826809999999999601e-01 -1.104797000000000029e+00 1.070697999999999928e+00 6.177890000000000326e-01 -1.615320000000000089e-01 -7.120819999999999927e-01 5.775700000000000278e-02 1.601898000000000044e+00 -2.033599999999999991e-02 -7.858159999999999590e-01 1.806560000000000110e-01 -1.168939999999999979e-01 -4.673649999999999749e-01 1.778785000000000061e+00 -1.969303999999999943e+00 6.345239999999999769e-01 -5.443930000000000158e-01 4.674760000000000026e-01 -9.284280000000000310e-01 -1.156240000000000046e-01 2.649210000000000176e-01 -2.812120000000000175e-01 -7.838049999999999740e-01 -4.858859999999999846e-01 4.072749999999999981e-01 4.845269999999999855e-01 2.639639999999999764e-01 -1.064489000000000019e+00 -1.285625999999999935e+00 1.893545000000000034e+00 3.614300000000000151e-02 6.648370000000000113e-01 -2.239859999999999907e-01 -2.153751000000000193e+00 -1.001549999999999940e-01 -1.255555999999999894e+00 4.565170000000000061e-01 -2.929749999999999854e-01 6.214119999999999644e-01 1.709940000000000071e-01 -6.725200000000000067e-01 -3.623790000000000067e-01 -3.738980000000000081e-01 -6.695940000000000225e-01 4.799260000000000193e-01 -1.560303999999999913e+00 -2.032910999999999913e+00
-2.205163999999999902e+00 3.763130000000000086e-01 3.475739999999999941e-01 -2.224079999999999946e-01 1.868203000000000058e+00 6.123750000000000027e-01 -1.364837000000000078e+00 -1.221383000000000107e+00 1.713460999999999901e+00 1.682800000000000129e-01 9.638959999999999750e-01 -3.570340000000000180e-01 -1.412036000000000069e+00 1.676399999999999890e+00 -4.085030999999999857e+00 -2.383510000000000073e-01 2.930699999999999861e+00 1.702720999999999929e+00 -1.273784000000000027e+00 -4.032100000000000128e-01 -8.702159999999999895e-01 4.672499999999999987e-01 -1.493753000000000108e+00 -4.443349999999999800e-01 -1.021533999999999942e+00 2.572110000000000229e-01 1.929980000000000029e-01 -7.642930000000000001e-01 1.099499000000000004e+00 -3.548699999999999771e-02 -4.364839999999999831e-01 1.274990999999999985e+00 1.681017999999999901e+00 -1.009041999999999994e+00 -1.116120999999999919e+00 -3.073440000000000061e-01 1.085900000000000060e-02 4.909839999999999760e-01 -4.784729999999999817e-01 4.353000000000000098e-03 -2.175269999999999981e-01 2.852380999999999833e+00 7.180969999999999853e-01 -2.524087999999999887e+00 -2.204000000000000056e-02 2.056074999999999875e+00 -9.253620000000000179e-01 1.325659999999999894e-01 1.424512999999999918e+00 -2.780580000000000274e-01 -1.558975000000000000e+00 1.500030999999999892e+00 9.693999999999999839e-02 -8.320959999999999468e-01 -6.735459999999999781e-01 -2.100337999999999816e+00 1.246700000000000030e-01 -2.300368000000000190e+00 2.498413000000000217e+00 -8.461699999999999777e-02 -6.636079999999999757e-01 4.782489999999999797e-01 1.012332999999999927e+00 -3.078170000000000073e-01 -2.701689999999999925e-01 -2.853629999999999778e-01 2.543851999999999780e+00 1.788694999999999924e+00 -9.110979999999999634e-01 3.314957000000000154e+00 -4.584449999999999914e-01 -5.353869999999999463e-01 -3.219898000000000149e+00 -1.180236000000000063e+00 1.224860000000000060e+00 -3.488100000000000089e-01 -2.619869000000000003e+00 4.346999999999999753e-01 8.652360000000000051e-01 1.181586000000000025e+00 2.190200000000000133e-02 -5.053069999999999506e-01 1.547732000000000108e+00 -2.027121000000000173e+00 -4.939379999999999882e-01 2.070879999999999943e-01 -5.934190000000000298e-01 1.366400999999999977e+00 -5.576210000000000333e-01 -1.698230000000000017e-01 1.469000000000000028e-01 1.338290999999999897e+00 1.765322000000000058e+00 7.520010000000000305e-01 -5.305109999999999548e-01 -5.315910000000000357e-01 1.608767999999999976e+00 -1.019816999999999974e+00 1.947019999999999862e-01 1.205600999999999923e+00 4.720779999999999976e-01 9.135210000000000274e-01 1.807576999999999989e+00 5.254050000000000109e-01 -2.144158000000000008e+00 -6.618060000000000054e-01 -5.993749999999999911e-01 -1.671600000000000030e-01 1.325036000000000103e+00 5.569410000000000194e-01 1.467880000000000018e-01 -1.296052999999999900e+00 4.852859999999999951e-01 1.053007000000000026e+00 -8.032040000000000290e-01 -2.546502999999999961e+00 2.624730000000000119e-01 -1.650587999999999944e+00 1.999360000000000026e-01 -1.181747000000000103e+00 1.766256000000000048e+00 -4.894390000000000129e-01 1.256782000000000066e+00 3.644000000000000104e-03 -3.867299999999999904e-02 -2.649599999999999733e-01 -1.445227000000000039e+00 3.698870000000000213e-01 -4.957110000000000127e-01 -1.158020000000000022e-01 -1.800713999999999926e+00 1.365696999999999939e+00 1.626690000000000080e-01 1.545976000000000017e+00 -6.926350000000000007e-01 -4.140490000000000004e-01 -1.936774999999999913e+00 -1.151289000000000007e+00 1.639636000000000093e+00 1.357696000000000014e+00 -1.536983999999999906e+00 -8.580799999999999539e-02 -4.875729999999999786e-01 6.020210000000000283e-01 -2.069021999999999917e+00 -7.792810000000000015e-01 -7.633429999999999938e-01 -1.662705000000000100e+00 -4.213069999999999871e-01 -5.592690000000000161e-01 2.133262999999999909e+00 -1.435157999999999934e+00 -4.647760000000000224e-01 8.306670000000000442e-01 7.244629999999999681e-01 1.131578999999999890e+00 -1.514553999999999956e+00 1.021268999999999982e+00 4.095790000000000264e-01 1.342790000000000095e-01 -5.070249999999999480e-01 -1.687179999999999902e+00 -9.149070000000000258e-01 -5.805799999999999850e-02 1.102918999999999983e+00 -2.419659999999999922e+00 7.221520000000000161e-01 -9.708090000000000330e-01 5.700680000000000192e-01 -1.583199999999999885e-02 4.127600000000000019e-02 -1.227014000000000049e+00 6.748899999999999344e-02 7.352000000000000028e-03 5.255370000000000319e-01 1.816880000000000051e+00 -6.961359999999999770e-01 -3.195770000000000000e-01 -7.892900000000000471e-01 1.173534999999999995e+00 2.507419000000000064e+00 -1.303228999999999971e+00 2.383836000000000066e+00 -9.675499999999999379e-02 8.518769999999999953e-01 1.561671000000000031e+00 -1.104851000000000028e+00 1.530604000000000076e+00 -5.168150000000000244e-01 -1.963578000000000046e+00 2.348615000000000119e+00 1.454066000000000081e+00 1.690663999999999945e+00 -1.251894999999999980e+00 2.466649999999999954e-01 2.308997000000000188e+00 -3.694680000000000186e-01 1.054396000000000111e+00 -7.002460000000000351e-01 2.012957999999999803e+00 -1.935379999999999878e-01 -1.194671999999999956e+00 -6.607499999999999485e-02 1.538839999999999930e-01 -6.325840000000000352e-01 -1.458701999999999943e+00 -1.378632999999999997e+00 1.476979999999999960e-01 -2.900670000000000193e-01 5.400120000000000475e-01 -1.604800000000000115e-01 2.140980000000000105e-01 4.564360000000000084e-01 -1.062390000000000001e-01 9.447569999999999579e-01 6.903860000000000552e-01 5.624130000000000518e-01 4.978620000000000267e-01 -4.925100000000000033e-01 1.181070000000000036e-01 1.165472999999999981e+00 8.577059999999999684e-01 -1.429842999999999975e+00 -1.007336000000000009e+00 -3.536469999999999891e-01 4.923620000000000219e-01 5.725900000000000434e-01 9.285060000000000535e-01 1.441179999999999961e-01 -3.207289999999999863e-01 1.714636000000000049e+00 -1.633524999999999894e+00 -1.762340000000000018e-01 -4.486950000000000105e-01 1.863812999999999942e+00 -8.659599999999999520e-01 -9.454919999999999991e-01 -1.980089999999999906e-01 -1.976985999999999910e+00 3.899819999999999953e-01 3.817989999999999995e-01 3.732599999999999807e-01 4.205820000000000114e-01 1.631423000000000068e+00 -1.580719999999999903e-01 -1.157866999999999980e+00 -1.787020999999999971e+00 -4.524400000000000088e-01 9.319450000000000234e-01 6.146540000000000337e-01 -1.852308999999999983e+00 -2.601959999999999829e-01 5.375999999999999703e-03 7.076179999999999692e-01 -2.825269999999999726e-01 -5.325659999999999838e-01 -1.672058000000000044e+00 -3.363663999999999987e+00 1.374276000000000053e+00 9.874309999999999476e-01 -9.281200000000000561e-02 1.228769999999999918e+00 1.122999999999999998e+00 7.398399999999999421e-02 6.238719999999999821e-01 6.075650000000000217e-01 2.067380000000000051e-01 1.050680000000000058e+00 -1.208509000000000055e+00 -1.565418999999999894e+00 1.708607999999999905e+00 7.259899999999999687e-02 8.181099999999999484e-02 -9.052879999999999816e-01 -6.993759999999999977e-01 3.300699999999999745e-01
-1.480140999999999929e+00 3.643549999999999844e-01 -1.000544000000000100e+00 -5.353438999999999837e+00 -2.391863999999999990e+00 8.651429999999999954e-01 3.675520999999999816e+00 -5.278310000000000501e-01 8.623189999999999467e-01 2.186714999999999964e+00 -3.242209999999999814e-01 2.180107000000000017e+00 5.992210000000000036e-01 1.358411999999999953e+00 -1.020610999999999935e+00 2.249127000000000098e+00 -9.772870000000000168e-01 -3.819899999999999685e-02 -1.476676000000000100e+00 -9.163259999999999739e-01 9.538189999999999724e-01 5.205729999999999524e-01 3.455633999999999872e+00 -9.915059999999999985e-01 3.298810000000000020e+00 5.289460000000000273e-01 -5.996850000000000236e-01 4.927230000000000221e-01 2.538974000000000064e+00 1.717281999999999975e+00 -1.566929999999999934e+00 -1.422488999999999892e+00 -2.634425999999999934e+00 2.498170000000000113e-01 -1.303946000000000049e+00 -2.012131000000000114e+00 2.945619999999999905e-01 2.437280000000000002e-01 -3.148508999999999780e+00 4.031500000000000083e-01 1.655510000000000037e-01 1.968556999999999890e+00 6.360300000000000675e-02 3.172311000000000103e+00 -2.400204000000000004e+00 -9.130380000000000162e-01 -3.167193000000000147e+00 4.913899999999999935e-01 8.292789999999999884e-01 4.431160000000000099e-01 -8.718920000000000003e-01 1.012677000000000049e+00 -1.988375000000000004e+00 2.574683999999999973e+00 3.605590000000000184e-01 2.152231000000000005e+00 -1.839002999999999943e+00 -4.151559999999999917e+00 -2.407320000000000015e-01 -2.077517999999999976e+00 3.715860000000000274e-01 -5.956230000000000135e-01 -8.793090000000000073e-01 -3.533200000000000229e-02 -7.388649999999999940e-01 -1.617623000000000033e+00 -1.089553999999999911e+00 1.940541000000000071e+00 2.142890000000000073e-01 -3.365115999999999996e+00 2.014867999999999881e+00 -2.125434999999999963e+00 -4.868819999999999815e-01 8.511180000000000412e-01 3.157494999999999941e+00 2.428558999999999912e+00 2.395909000000000066e+00 -2.374242000000000186e+00 -2.061383000000000187e+00 -5.735500000000000043e-01 8.669000000000000039e-01 -1.502100999999999908e+00 -7.799559999999999826e-01 -2.114979999999999916e-01 8.401070000000000482e-01 -1.711341000000000001e+00 4.117109999999999936e-01 1.963980999999999977e+00 -8.028359999999999941e-01 7.241830000000000211e-01 -1.328896000000000077e+00 -1.088483000000000089e+00 -2.932341000000000086e+00 1.486515999999999948e+00 -2.128371000000000013e+00 2.984439999999999871e-01 8.524859999999999660e-01 9.167509999999999826e-01 2.871767000000000181e+00 7.996200000000000530e-02 -1.925010000000000054e-01 -1.510582000000000091e+00 -6.100970000000000004e-01 1.510739999999999972e+00 1.201322000000000001e+00 1.658850000000000047e-01 2.690170000000000061e-01 4.161119999999999819e-01 8.214660000000000295e-01 3.301169999999999938e-01 1.061657000000000073e+00 -1.466618999999999895e+00 2.868736999999999870e+00 1.327871000000000024e+00 -2.383499999999999855e-02 -9.737300000000000122e-02 -5.078439999999999621e-01 -1.068149999999999933e+00 -6.272710000000000230e-01 -8.231000000000000538e-01 2.142562999999999995e+00 -9.171970000000000400e-01 3.054088000000000136e+00 2.584110000000000018e-01 -9.249140000000000139e-01 -5.275969999999999827e-01 1.031498999999999944e+00 -9.366039999999999921e-01 -5.226769999999999472e-01 8.258149999999999658e-01 -1.396900999999999948e+00 2.482489999999999974e-01 1.622190999999999939e+00 -1.329901000000000000e+00 1.235551000000000066e+00 1.601358999999999977e+00 1.922973000000000043e+00 -1.338646000000000003e+00 1.678530000000000022e-01 -9.525949999999999696e-01 1.260078000000000031e+00 2.247078999999999827e+00 4.099760000000000071e-01 3.352100000000000080e-01 1.488115999999999994e+00 2.328490000000000004e-01 1.180900000000000005e-02 -3.179589999999999916e-01 -1.217430000000000040e-01 -2.812640000000000140e-01 2.380161000000000193e+00 -1.201788999999999996e+00 2.291691000000000145e+00 -1.153575000000000017e+00 -6.508199999999999541e-01 9.163050000000000361e-01 -1.034891000000000005e+00 1.653113000000000055e+00 1.169049999999999923e+00 -3.183690000000000131e-01 4.683379999999999765e-01 6.232290000000000330e-01 5.142000000000000043e-02 -6.827050000000000063e-01 7.350349999999999939e-01 -3.371950000000000225e-01 -1.388867999999999991e+00 -1.825993999999999895e+00 1.590837000000000057e+00 -1.438450000000000006e-01 -2.143994000000000177e+00 -5.262099999999999556e-01 -1.018412000000000095e+00 1.021049000000000095e+00 -8.154749999999999499e-01 -1.279504999999999892e+00 -1.872820000000000040e-01 4.349540000000000073e-01 1.063104999999999967e+00 -1.441554999999999920e+00 1.553549999999999931e-01 -1.085969999999999991e-01 -7.502940000000000165e-01 7.595079999999999609e-01 2.309190000000000076e+00 1.989484000000000030e+00 -2.976150000000000184e-01 -8.902330000000000521e-01 -1.152700000000000079e-02 2.717749999999999888e-01 -2.046867000000000214e+00 1.768577000000000066e+00 -4.748260000000000258e-01 -1.048038999999999943e+00 1.987441999999999931e+00 9.728520000000000501e-01 -1.395073999999999925e+00 -1.687329999999999941e-01 1.626608000000000054e+00 -9.512410000000000032e-01 -7.866800000000000459e-01 -7.592910000000000492e-01 2.532730000000000259e-01 2.336110000000000131e-01 -2.711532000000000053e+00 2.079372999999999916e+00 -3.249960000000000071e-01 -1.518960000000000032e-01 3.950420000000000043e-01 1.312392000000000003e+00 1.092119000000000062e+00 1.732847999999999944e+00 -1.244844000000000062e+00 -6.421170000000000488e-01 2.418814999999999937e+00 -2.615400000000000016e-02 -2.111937000000000175e+00 2.250890000000000113e-01 -1.108370999999999995e+00 1.675699999999999967e+00 1.903969999999999940e+00 -7.900730000000000253e-01 1.610630000000000117e-01 8.342600000000000016e-01 7.982460000000000111e-01 5.987559999999999549e-01 6.261539999999999884e-01 -5.664099999999999691e-01 2.513369999999999771e-01 1.669030000000000014e+00 3.187740000000000018e-01 -9.897150000000000114e-01 1.781991000000000103e+00 -1.709996000000000071e+00 -8.176160000000000094e-01 -1.137899999999999912e+00 1.053433999999999982e+00 -3.336379999999999901e-01 -1.960285000000000055e+00 1.720647000000000038e+00 -1.511544999999999916e+00 -2.311739999999999906e-01 2.442400000000000126e-02 5.114980000000000082e-01 4.461419999999999830e-01 -4.621910000000000185e-01 -9.362089999999999579e-01 7.331959999999999589e-01 -3.258070000000000133e-01 5.983859999999999735e-01 6.985270000000000090e-01 4.207299999999999929e-01 -5.441319999999999490e-01 1.801851000000000091e+00 1.181130999999999931e+00 6.026679999999999815e-01 6.434999999999999748e-03 -2.398811999999999944e+00 2.244770000000000099e-01 -2.237693000000000154e+00 -9.352310000000000345e-01 -6.236800000000000122e-01 -2.004624999999999879e+00 -2.053689999999999960e-01 -1.669664999999999955e+00 1.995450000000000002e-01 -1.374778000000000056e+00 -2.449351000000000056e+00 -1.242453000000000030e+00 1.670525000000000038e+00 -1.725267000000000106e+00 -2.289616000000000096e+00 -7.625999999999999446e-02 6.422069999999999723e-01 -3.001130000000000186e-01 1.605922999999999989e+00
1.641032000000000046e+00 1.658423999999999898e+00 5.799990000000000423e-01 -6.475200000000000400e-02 -5.697619999999999907e-01 2.907239999999999824e-01 1.298456999999999972e+00 -1.847868000000000066e+00 1.315050000000000108e-01 9.242799999999999627e-02 3.633250000000000091e-01 -1.161799999999999986e-02 -1.337530000000000108e+00 2.566410000000000080e-01 -5.228180000000000049e-01 -2.216416000000000164e+00 4.707239999999999758e-01 -2.041113000000000177e+00 1.732895000000000074e+00 -4.695329999999999782e-01 4.619748999999999661e+00 -1.372878000000000043e+00 2.694436000000000053e+00 -2.825984000000000052e+00 -1.794491999999999976e+00 2.500930000000000097e-01 1.698676999999999992e+00 -1.972460000000000047e-01 -1.079563999999999968e+00 -2.404033000000000087e+00 -3.124960000000000182e+00 5.771420000000000439e-01 2.027175999999999867e+00 6.576229999999999576e-01 -2.383521000000000001e+00 -8.668320000000000469e-01 5.140449999999999742e-01 8.003609999999999891e-01 3.407419999999999893e-01 -2.392920000000000158e+00 1.477950000000000097e+00 -2.627730999999999817e+00 -2.019896000000000136e+00 -2.327599999999999947e-01 6.790549999999999642e-01 -1.603399000000000019e+00 -9.633350000000000524e-01 -9.863720000000000265e-01 2.071997999999999784e+00 -6.481639999999999624e-01 -3.112179999999999946e+00 3.686050000000000160e-01 8.618219999999999770e-01 2.066262000000000043e+00 1.848093999999999903e+00 5.835259999999999891e-01 4.182919999999999972e-01 -2.378409999999999969e-01 1.394101000000000035e+00 -1.091402999999999901e+00 2.030295000000000183e+00 1.008691000000000004e+00 7.274019999999999930e-01 -3.243730000000000224e-01 -5.003530000000000477e-01 -6.609209999999999807e-01 -3.615292000000000172e+00 -2.744618000000000002e+00 -1.782618000000000036e+00 -1.731478999999999990e+00 2.772160000000000180e-01 -8.934899999999999787e-02 -1.557735000000000092e+00 -7.012070000000000247e-01 -1.429005999999999998e+00 1.199294000000000082e+00 -6.236930000000000529e-01 -1.921170000000000044e+00 -1.046847000000000083e+00 -2.197306000000000203e+00 -2.183437000000000072e+00 -7.617969999999999464e-01 1.150209999999999982e-01 2.303170000000000162e+00 -5.595390000000000086e-01 1.747579999999999967e-01 7.049919999999999520e-01 -6.017989999999999728e-01 3.384872000000000103e+00 1.575215999999999950e+00 1.071865000000000068e+00 5.461599999999999788e-01 8.933090000000000197e-01 1.141059999999999991e-01 -2.621490000000000209e-01 -2.655339999999999923e-01 1.521122000000000085e+00 -5.243879999999999653e-01 1.967505999999999977e+00 2.470559999999999978e-01 2.579589999999999939e-01 -6.533520000000000438e-01 -5.329800000000000093e-01 1.206757999999999997e+00 1.536062999999999956e+00 1.609409000000000090e+00 4.307380000000000098e-01 -3.246769000000000016e+00 4.520469999999999766e-01 8.445810000000000262e-01 -3.681090000000000195e-01 2.187040999999999791e+00 -4.937059999999999782e-01 1.338416000000000050e+00 1.632879999999999887e-01 1.256359000000000004e+00 -1.694628999999999941e+00 -1.076645000000000074e+00 3.328450000000000020e-01 8.455759999999999943e-01 -4.699070000000000191e-01 2.446419999999999983e-01 -5.948369999999999491e-01 1.177221999999999991e+00 1.521000000000000000e-03 1.496799999999999908e+00 7.985630000000000228e-01 -6.980500000000000593e-02 9.577499999999999902e-01 1.393400000000000021e-02 3.947439999999999838e-01 -1.691569000000000100e+00 1.117599000000000009e+00 3.009979999999999878e-01 2.251319999999999988e-01 5.214760000000000506e-01 -1.504939000000000027e+00 2.420350000000000001e-01 1.614911999999999903e+00 1.069692000000000087e+00 -9.908150000000000013e-01 2.241347000000000200e+00 1.379342999999999986e+00 -5.495870000000000477e-01 1.054275000000000073e+00 -2.494407999999999959e+00 -1.205108999999999986e+00 -4.958300000000000207e-02 8.345270000000000188e-01 1.902554000000000078e+00 1.313789000000000096e+00 -1.598292999999999964e+00 -9.710860000000000047e-01 4.314919999999999867e-01 1.330359000000000069e+00 3.077335999999999849e+00 -1.269004999999999939e+00 -7.582250000000000378e-01 5.124640000000000306e-01 9.739290000000000447e-01 -1.397029999999999994e+00 1.859167999999999932e+00 1.148665000000000047e+00 -1.797339999999999938e+00 4.775800000000000045e-01 -9.832000000000000461e-03 1.712984999999999980e+00 2.169674999999999798e+00 6.067529999999999868e-01 -1.067658999999999914e+00 -7.980049999999999644e-01 3.386493000000000198e+00 1.882816999999999963e+00 1.498977000000000004e+00 2.782199999999999951e-02 -3.408780000000000143e-01 2.068814000000000153e+00 6.298499999999999932e-02 1.612155000000000005e+00 7.855689999999999618e-01 -1.381130000000000135e-01 -8.428700000000000081e-02 -2.451528000000000151e+00 1.273854999999999960e+00 -7.391980000000000217e-01 7.754830000000000334e-01 -4.640710000000000113e-01 3.904569999999999985e-01 -2.942980000000000040e-01 -6.580300000000000038e-02 -5.216159999999999686e-01 1.389529999999999932e-01 1.605618999999999907e+00 4.269249999999999989e-01 -1.278321000000000041e+00 4.220240000000000102e-01 -1.614862000000000020e+00 1.195969000000000060e+00 -6.942650000000000210e-01 -1.521139999999999992e-01 -1.464075000000000015e+00 -1.893107000000000095e+00 1.153232999999999953e+00 1.878009999999999957e-01 -2.565640000000000143e+00 1.222334999999999949e+00 3.111673000000000133e+00 -5.185990000000000322e-01 -2.649630000000000041e-01 -1.588413000000000075e+00 -7.439519999999999467e-01 -1.678309999999999969e+00 -1.132011000000000100e+00 -6.007019999999999582e-01 -1.527416000000000107e+00 1.281599999999999927e-02 4.031689999999999996e-01 -3.298900000000000166e-01 5.024410000000000265e-01 -1.536129000000000078e+00 -9.981950000000000545e-01 2.562189999999999745e-01 1.352267000000000108e+00 1.209101999999999899e+00 -6.339700000000000335e-01 -3.503609999999999780e-01 -3.166900000000000270e-02 4.983569999999999944e-01 7.415969999999999507e-01 -2.163635000000000197e+00 -6.507380000000000386e-01 6.792150000000000132e-01 -1.455486999999999975e+00 -2.083965000000000067e+00 -5.921929999999999694e-01 1.569329999999999892e-01 9.950160000000000116e-01 -1.907330000000000136e-01 -1.090365000000000029e+00 7.076259999999999772e-01 4.117930000000000201e-01 1.296183000000000085e+00 6.538450000000000095e-01 1.486760000000000026e-01 1.381882000000000055e+00 -6.509359999999999591e-01 -6.575100000000000389e-02 -6.877760000000000540e-01 -4.081719999999999793e-01 -2.798030000000000239e-01 7.948349999999999582e-01 -1.574499999999999858e-02 -2.204589999999999883e-01 -8.439099999999999380e-02 6.912650000000000183e-01 -3.103886000000000145e+00 -3.815649999999999875e-01 6.424499999999999655e-02 -1.485217000000000009e+00 9.053529999999999633e-01 -1.634675000000000100e+00 1.262250000000000094e+00 -2.198080000000000034e-01 -1.347800000000000040e-02 -2.050490000000000090e-01 -8.947999999999999357e-03 -1.165953000000000017e+00 1.010933000000000082e+00 3.601399999999999740e-02 3.834690000000000043e-01 -2.124630000000000130e-01 -5.855510000000000437e-01 1.591220000000000134e-01 -7.279149999999999787e-01 9.290119999999999489e-01 7.002789999999999848e-01