-9.047552237200000036e+02
-9.003905418499999769e+02
-9.069525704200000291e+02
-9.408005746699999463e+02
-9.318856207899999617e+02
-8.935909276600000339e+02
-9.171650680300000431e+02
-9.193342433100000335e+02
-9.177920109399999546e+02
-9.194287693799999488e+02
-9.221539206899999499e+02
-9.198704563799999505e+02
-9.169719197299999678e+02
-9.378996632800000270e+02
-9.021921402799999896e+02
-9.054857752000000346e+02
-9.344803731299999754e+02
-9.282379571599999508e+02
-9.096977331800000002e+02
-9.189543248999999605e+02
-9.175200504599999931e+02
-9.431571598900000026e+02
-9.323747898799999803e+02
-8.911261228199999778e+02
-9.179589682600000060e+02
-9.278245311099999526e+02
-8.949558331900000212e+02
-9.018108899400000382e+02
-9.025810219799999459e+02
-9.268162030800000366e+02
-9.228324399499999799e+02
-9.420616095100000393e+02
-9.280804581700000426e+02
-8.921457838500000435e+02
-8.892823211600000377e+02
-9.061816423599999553e+02
-9.290506715300000451e+02
-9.237161286199999495e+02
-9.010799865599999521e+02
-9.359389591399999517e+02
-9.196338963900000181e+02
-8.976673256399999445e+02
-9.376742999800000007e+02
-9.201592380499999990e+02
-8.925734837200000129e+02
-9.209875970199999529e+02
-9.425349346599999762e+02
-9.267389311399999769e+02
-9.242292313599999716e+02
-9.315616942899999913e+02
-9.455775011399999812e+02
-8.957665016299999934e+02
-9.196916464199999837e+02
-9.023318537699999524e+02
-9.014899318100000301e+02
-8.995454649499999960e+02
-9.325292431499999566e+02
-9.226131934799999499e+02
-8.932364975899999990e+02
-9.067000148700000182e+02
-9.388833413900000551e+02
-9.268316571599999634e+02
-9.059488007400000242e+02
-9.206865683900000477e+02
-9.041525114400000120e+02
-8.825712167499999623e+02
-9.026340082299999494e+02
-9.163584446600000319e+02
-9.235513042500000438e+02
-9.293689658700000109e+02
-9.312323892299999670e+02
-9.176813976199999843e+02
-9.174917748899999879e+02
-9.016793508299999758e+02
-9.158686008600000150e+02
-9.187603504899999507e+02
-9.288469202600000472e+02
-9.010035672200000363e+02
-9.278390273700000535e+02
-9.327919563899999957e+02
-8.978346541099999740e+02
-9.210644644300000436e+02
-9.320374081300000171e+02
-8.919167193499999939e+02
-9.246478848699999844e+02
-9.305526657899999918e+02
-9.074832777100000385e+02
-9.267955899700000373e+02
-9.307106079100000215e+02
-9.294752165800000512e+02
-9.248906000099999574e+02
-8.993459585800000013e+02
-9.203131916700000374e+02
-8.939478622699999733e+02
-9.460227016699999467e+02
-8.972028680900000381e+02
-9.298322431200000437e+02
-8.914090917700000318e+02
-9.244521387199999936e+02
-9.454643028399999594e+02
