-9.138249999999999984e-01 1.328538999999999914e+00 -2.275974999999999859e+00 1.957306999999999908e+00 2.575213000000000196e+00 7.803579999999999961e-01 -8.118250000000000188e-01 -1.159524999999999917e+00 1.115272999999999959e+00 1.454850000000000032e-01 -3.095550000000000246e-01 5.288699999999999513e-01 4.510460000000000136e+00 4.559115000000000251e+00 3.572900999999999883e+00 6.001309999999999700e-01 2.140470000000000095e+00 1.957883000000000040e+00 9.889210000000000500e-01 -4.687600000000000100e-02 -3.482892999999999795e+00 -1.817418999999999896e+00 2.885719999999999952e-01 -5.219070999999999572e+00 -4.528619999999999868e-01 -1.316162999999999972e+00 -8.828909999999999814e-01 8.783929999999999794e-01 -4.396958999999999840e+00 9.803060000000000107e-01 3.258058000000000121e+00 -2.504821000000000186e+00 -3.099756999999999874e+00 -8.235580000000000123e-01 -5.289806999999999704e+00 -2.661129999999999884e-01 2.470650000000000013e+00 -1.482113000000000014e+00 3.498990000000000156e-01 -1.210912999999999906e+00 -4.835840000000000138e-01 8.655859999999999665e-01 -1.983119999999999883e-01 6.046599999999999892e-02 1.156619999999999981e+00 9.726660000000000306e-01 -1.348629999999999995e+00 5.637520000000000309e-01 2.293363999999999958e+00 2.334184000000000037e+00 -7.463819999999999899e-01 -6.418949999999999934e-01 3.295468000000000064e+00 -1.245889000000000024e+00 -2.183777000000000079e+00 1.822446000000000010e+00 3.106090000000000018e+00 -1.031149999999999983e-01 -6.609949999999999992e-01 6.556049999999999933e-01 -1.562050000000000105e-01 3.699740000000000251e-01 -1.240590999999999999e+00 -2.585456000000000198e+00 3.316513000000000044e+00 -3.278217999999999854e+00 1.677912000000000070e+00 -3.444200000000000039e-02 1.675210000000000032e-01 -3.005010000000000181e-01 1.725163000000000002e+00 4.514029999999999987e-01 -2.507925000000000182e+00 -1.361286999999999914e+00 2.412390000000000090e-01 -2.218805000000000138e+00 -3.507939999999999947e-01 -6.636060000000000292e-01 -5.176084999999999603e+00 3.200590000000000046e+00 5.244210000000000260e-01 7.461199999999999777e-02 -7.895900000000000141e-02 -4.966650000000000231e-01 6.593059999999999476e-01 4.613955999999999946e+00 -3.579047999999999785e+00 1.811479000000000061e+00 2.612668000000000212e+00 3.296740000000000226e-01 -1.445075000000000109e+00 -1.034661000000000053e+00 1.170144000000000073e+00 -1.203235999999999972e+00 -3.847751999999999839e+00 3.442970000000000197e-01 3.133901999999999965e+00 -1.654014000000000095e+00 -6.529740000000000544e-01 2.304006999999999916e+00 1.161750000000000005e-01 1.318648999999999960e+00 -1.673693000000000097e+00 2.022765999999999842e+00 -1.255284999999999984e+00 6.071619999999999795e-01 -2.285534999999999872e+00 2.817288000000000014e+00 -3.075168000000000124e+00 -3.101745999999999892e+00 -2.125754999999999839e+00 -9.870069999999999677e-01 -9.286020000000000385e-01 -2.060680000000000012e-01 -2.875340000000000118e-01 7.120490000000000430e-01 -1.499004999999999921e+00 6.277629999999999599e-01 1.048664000000000041e+00 5.438239999999999741e-01 -5.070299999999999807e-01 -1.573688999999999893e+00 1.366436999999999902e+00 -8.503279999999999728e-01 1.636827000000000032e+00 -1.177381999999999929e+00 3.711180000000000034e-01 2.445132999999999779e+00 3.274442000000000075e+00 3.658844999999999903e+00 2.264117999999999853e+00 -3.556767999999999930e+00 -4.533087000000000089e+00 -1.223851999999999940e+00 -3.002384000000000164e+00 1.099026999999999976e+00 1.488919999999999966e-01 -1.786772999999999945e+00 -5.948300000000000115e-02 -4.943919999999999981e-01 8.138779999999999903e-01 -3.492656000000000205e+00 -2.022313000000000027e+00 -1.530351999999999935e+00 -2.080762000000000000e+00 1.815471999999999975e+00 1.044867999999999908e+00 -7.024270000000000236e-01 -3.549640000000000128e+00 1.555903000000000036e+00 -1.999735999999999958e+00 7.379409999999999581e-01 -5.279909999999999881e-01 3.398073000000000121e+00 2.889639999999999986e-01 -1.939678000000000013e+00 2.400986000000000065e+00 9.128899999999999515e-02 9.581169999999999964e-01 8.867180000000000062e-01 -1.425699000000000050e+00 8.754229999999999512e-01 -1.493130999999999986e+00 -3.983010000000000161e-01 2.751596000000000153e+00 -1.016335999999999906e+00 2.939932000000000212e+00 -1.782100000000000073e-01 3.693420000000000036e-01 1.293706000000000023e+00 -2.591429000000000205e+00 2.268857000000000124e+00 -3.337946000000000080e+00 -2.572429999999999994e-01 1.267899000000000109e+00 1.144115999999999911e+00 -2.622260000000000146e-01 -5.489626000000000339e+00 -7.703719999999999457e-01 -3.092947000000000113e+00 -2.520249999999999879e+00 -5.668302999999999869e+00 4.389732000000000411e+00 6.291029999999999678e-01 2.481926000000000077e+00 8.831820000000000226e-01 -6.457030000000000269e-01 1.177127999999999952e+00 -8.555779999999999497e-01 -9.571690000000000476e-01 1.289899999999999936e-01 1.788796999999999970e+00 -1.216547000000000045e+00 -2.979029999999999734e-01 -4.421783999999999715e+00 -1.914725999999999928e+00 -3.930787000000000031e+00 1.261246000000000089e+00 -2.995337999999999834e+00 2.979826000000000086e+00 3.027995000000000214e+00 8.459100000000000508e-01 -6.048160000000000203e-01 1.968248999999999915e+00 1.259444000000000008e+00 7.463830000000000187e-01 4.466799999999999937e-02 5.260449999999999848e-01 1.213289999999999980e+00 2.355465000000000142e+00 1.441632999999999942e+00 -7.441510000000000069e-01 -7.029309999999999725e-01 9.079369999999999941e-01 -3.080083000000000126e+00 -1.856978000000000018e+00 -1.238728999999999969e+00 -3.034025000000000194e+00 3.994199999999999973e-01 -4.822480000000000100e-01 1.254170000000000007e-01 1.568424999999999958e+00 -3.775485000000000202e+00 7.670320000000000471e-01 -9.065929999999999822e-01 1.456429999999999891e+00 2.689741000000000160e+00 8.155769999999999964e-01 1.820880000000000054e+00 1.082243000000000066e+00 1.856359999999999955e-01 2.279240999999999850e+00 6.263050000000000006e-01 1.435831000000000079e+00 -2.718696000000000002e+00 3.494470000000000076e-01 -1.033041000000000098e+00 -5.356229999999999603e-01 1.547050000000000036e+00 1.427923999999999971e+00 2.421832000000000207e+00 -6.118890000000000162e-01 1.097927000000000097e+00 1.707554999999999934e+00 2.875858000000000025e+00 2.665627999999999886e+00 2.841518999999999906e+00 9.568839999999999568e-01 6.230040000000000022e-01 3.080990000000000117e-01 9.641790000000000083e-01 6.559930000000000483e-01 4.584070000000000089e-01 -1.606938999999999895e+00 2.117560999999999805e+00 1.174706999999999946e+00 -5.171930000000000138e-01 -3.351687999999999779e+00 -5.114640000000000297e-01 2.344690000000000107e-01 -1.159038999999999930e+00 1.244139999999999968e-01 1.725332000000000088e+00 -8.057900000000000063e-01 1.449313000000000073e+00 -2.763700000000000045e-01 -5.770720000000000294e-01 -1.082802000000000042e+00 -2.397947999999999968e+00 6.465060000000000251e-01 1.931872000000000034e+00 -9.580109999999999459e-01 1.514926999999999913e+00 3.790175000000000072e+00 1.899661999999999962e+00 9.460020000000000095e-01 -3.131639999999999979e-01 -1.350046999999999997e+00 1.981120000000000103e-01 1.839779000000000053e+00 -3.969056000000000139e+00 -4.100119999999999876e-01
1.758734999999999937e+00 1.558156000000000097e+00 -5.206461000000000006e+00 1.449354999999999949e+00 4.553550000000000098e-01 2.290560000000000096e-01 2.079572000000000198e+00 7.023009999999999531e-01 3.461399000000000115e+00 1.366854000000000013e+00 -1.536766999999999994e+00 -2.277836999999999890e+00 1.784199999999999953e-01 -3.682610000000000050e-01 -4.390151000000000359e+00 3.251040000000000041e-01 2.007473000000000063e+00 2.504824000000000161e+00 1.592335000000000056e+00 1.983786999999999967e+00 3.915156000000000081e+00 -1.614932999999999952e+00 9.565630000000000521e-01 3.016130000000000200e-01 -1.594962999999999909e+00 -4.513372000000000384e+00 1.793944999999999901e+00 2.439525999999999861e+00 3.148280999999999885e+00 5.542249999999999677e-01 -1.826783000000000046e+00 4.044130000000000225e-01 2.073153000000000024e+00 5.194020000000000303e-01 -8.112540000000000306e-01 3.558670999999999918e+00 6.132210000000000161e-01 5.142831000000000152e+00 -2.606437000000000115e+00 1.336505999999999972e+00 1.095077000000000078e+00 -2.210122000000000142e+00 -3.775979999999999892e-01 2.173840999999999912e+00 -2.084436999999999873e+00 6.446009999999999796e-01 1.995750000000000024e-01 2.058615999999999779e+00 1.541833999999999927e+00 2.274795000000000122e+00 -2.748406000000000127e+00 3.956064000000000025e+00 -1.209200000000000032e-02 1.371966000000000019e+00 -3.687422000000000200e+00 -1.746000999999999914e+00 3.607223999999999986e+00 -7.586399999999999810e-01 -2.153960999999999792e+00 -3.621195999999999859e+00 4.211499999999999966e-02 -1.623062000000000005e+00 -1.763076000000000088e+00 -7.536019999999999941e-01 -1.006337999999999955e+00 1.246501999999999999e+00 1.115160000000000040e-01 -1.571887999999999952e+00 1.142798999999999898e+00 -1.766739999999999977e-01 -1.266688000000000036e+00 -9.531220000000000248e-01 2.419900999999999858e+00 -3.556404000000000121e+00 -7.071659999999999613e-01 -2.037771999999999917e+00 1.284810000000000119e-01 -6.808750000000000080e-01 6.362670000000000270e-01 2.613052000000000152e+00 8.509010000000000185e-01 -2.513241999999999976e+00 -2.526816999999999869e+00 -7.326420000000000154e-01 8.445899999999999519e-01 -2.006250999999999785e+00 -1.213548999999999989e+00 1.598055000000000003e+00 4.226694000000000173e+00 1.740402999999999922e+00 1.138965000000000005e+00 2.555979999999999919e-01 7.209889999999999910e-01 -3.800089999999999857e-01 -4.066945999999999728e+00 5.813190000000000301e-01 5.101099999999999524e-01 2.655105999999999966e+00 8.338006000000000029e+00 3.526583000000000023e+00 -1.302327000000000012e+00 -2.480936999999999948e+00 -9.023000000000000465e-02 -6.987919999999999687e-01 2.223252000000000006e+00 3.653207999999999789e+00 3.097310999999999925e+00 -4.161491999999999969e+00 5.137800000000000006e-02 -1.833520000000000039e+00 -2.481618000000000102e+00 -9.943999999999999714e-03 9.577489999999999615e-01 2.739249999999999741e-01 -6.103600000000000136e-01 1.561131999999999964e+00 7.032089999999999730e-01 -1.219872999999999985e+00 -2.182630000000000070e+00 9.301249999999999796e-01 3.878019999999999801e-01 -2.573159999999999892e-01 -5.833598000000000283e+00 -1.822567000000000048e+00 1.562959999999999905e+00 5.891859999999999875e-01 -8.388929999999999998e-01 4.264916999999999625e+00 -4.430826999999999849e+00 2.873099999999999959e-02 1.425953999999999944e+00 4.294181000000000026e+00 -1.608595999999999915e+00 4.391820000000000168e-01 -1.802869000000000055e+00 -1.530351000000000017e+00 2.841298999999999797e+00 1.343701000000000034e+00 3.650999999999999801e-01 2.131848999999999883e+00 -2.823700000000000168e-02 -2.580642000000000102e+00 -8.698879999999999946e-01 1.704239000000000059e+00 8.073069999999999968e-01 5.428359999999999852e-01 8.185909999999999576e-01 -1.948744999999999949e+00 -3.189573000000000214e+00 -1.631520999999999999e+00 6.482379999999999809e-01 -7.744670000000000165e-01 5.801920000000000410e-01 3.293226999999999904e+00 9.610349999999999726e-01 2.853899999999999881e+00 -1.559155999999999986e+00 -9.352639999999999842e-01 -1.622279999999999944e+00 -1.896555999999999909e+00 -7.651890000000000081e-01 5.029959999999999987e-01 -3.764850000000000141e-01 -1.536769999999999969e+00 -1.507112999999999925e+00 -6.441519999999999468e-01 -2.797222000000000097e+00 3.570088000000000150e+00 -7.023810000000000331e-01 2.000725999999999782e+00 -2.637005999999999961e+00 -3.734672999999999909e+00 -2.039060000000000039e-01 -1.155270999999999937e+00 -3.440710000000000157e+00 -1.946080000000000032e-01 4.479199999999999848e-01 1.005274000000000001e+00 6.036909999999999776e-01 2.716403999999999819e+00 -2.002842999999999929e+00 1.188924000000000092e+00 6.642740000000000311e-01 1.794057000000000013e+00 -1.091290000000000093e+00 1.142341000000000051e+00 2.056350000000000122e-01 3.504269999999999885e-01 1.546599999999999919e-01 -9.177480000000000082e-01 -4.784370000000000012e-01 -1.850040000000000018e-01 2.638199999999999990e-01 -1.231651000000000051e+00 -1.964256000000000002e+00 -1.217686000000000046e+00 -7.834640000000000493e-01 7.175199999999999634e-02 8.213070000000000093e-01 1.842299999999999841e-02 -5.521719999999999962e-01 3.077460000000000195e-01 -7.967239999999999878e-01 -1.585439000000000043e+00 4.976510000000000100e-01 -7.706300000000000650e-02 1.452765000000000084e+00 -9.537339999999999707e-01 1.081247000000000069e+00 -1.182839999999999892e+00 -4.126870000000000260e-01 1.233019999999999949e-01 -9.982900000000000107e-02 -2.586393000000000164e+00 -1.604900999999999911e+00 -1.865439000000000069e+00 2.422506999999999966e+00 6.904519999999999547e-01 -1.206957999999999975e+00 -1.426293999999999951e+00 2.895610000000000128e-01 -5.341150000000000064e-01 -7.540419999999999900e-01 1.649524999999999908e+00 2.148979000000000195e+00 1.144381000000000093e+00 -1.537214000000000080e+00 2.752278000000000002e+00 2.282001999999999864e+00 -1.907199000000000089e+00 1.895804000000000045e+00 2.818740000000000023e+00 8.540699999999999958e-01 -2.329416999999999849e+00 1.627309999999999868e-01 -1.716768999999999989e+00 -2.014213999999999949e+00 7.792699999999999627e-02 -2.036007000000000122e+00 -1.758569999999999967e+00 -3.580016999999999783e+00 -1.492480000000000029e+00 -1.738336000000000103e+00 -2.592906999999999851e+00 9.056100000000000261e-02 1.808953000000000033e+00 2.857118999999999964e+00 1.245602000000000098e+00 -4.636510000000000353e+00 -2.426715000000000177e+00 1.298219999999999930e+00 4.136509999999999909e-01 -7.999410000000000132e-01 -2.590088000000000168e+00 8.452370000000000161e-01 -1.542529000000000039e+00 1.084778999999999938e+00 -3.684479999999999977e-01 -3.315409999999999968e+00 -1.325682000000000027e+00 4.705625000000000391e+00 2.170583000000000151e+00 -2.216432000000000180e+00 -1.045164999999999900e+00 8.804469999999999796e-01 -8.333999999999999395e-03 2.756314000000000153e+00 -7.510620000000000074e-01 5.621580999999999939e+00 -1.595326999999999940e+00 5.965730000000000199e-01 7.252769999999999495e-01 3.292499999999999871e-01 1.430420999999999943e+00 1.694599999999999926e-02 -5.421700000000000130e-02 1.151958000000000037e+00 5.186600000000000099e-01 1.431596000000000091e+00 2.860459000000000085e+00 -4.018263000000000140e+00 -4.916550000000000087e-01
1.657559999999999867e-01 6.997759999999999536e-01 -3.463852000000000153e+00 7.420900000000000274e-01 8.352999999999999314e-02 -1.072086000000000094e+00 6.173720000000000319e-01 1.124718000000000107e+00 9.153390000000000137e-01 -1.487694999999999990e+00 2.052048999999999790e+00 1.232653999999999916e+00 -4.049599999999999728e-02 -5.071915999999999869e+00 2.042863000000000095e+00 -9.122190000000000021e-01 2.786128000000000160e+00 -2.521714999999999929e+00 5.021299999999999653e-01 3.220689999999999942e-01 1.888739999999999863e-01 -1.107588000000000017e+00 6.469000000000000306e-01 1.544260000000000077e-01 -1.779633999999999938e+00 1.699548000000000059e+00 -3.593026000000000053e+00 4.934549999999999770e-01 -2.421448999999999963e+00 -2.455439000000000149e+00 2.829343999999999859e+00 1.695760000000000045e-01 -2.685516999999999932e+00 1.451737000000000055e+00 -4.038860999999999812e+00 1.264880000000000004e+00 -4.710721999999999632e+00 4.677247000000000376e+00 -3.330519999999999925e+00 -2.082386000000000070e+00 -2.182166000000000050e+00 -6.406460000000000488e-01 -8.193740000000000467e-01 -2.493031999999999915e+00 1.175315000000000110e+00 6.685020000000000406e-01 -3.726570999999999856e+00 -4.651000000000000134e-01 -7.904710000000000347e-01 -6.933350000000000346e-01 1.976391000000000009e+00 -1.331946999999999992e+00 -1.640201999999999938e+00 2.771484000000000059e+00 -6.636239999999999917e-01 5.868313999999999808e+00 4.946013999999999911e+00 2.019426000000000165e+00 9.718949999999999534e-01 4.850349999999999939e-01 -3.143329999999999735e-01 -3.058330000000000215e-01 -1.360900999999999916e+00 -7.396230000000000304e-01 2.007273999999999781e+00 -2.012779999999999792e+00 3.066940000000000222e+00 -1.593231999999999982e+00 -1.079800000000000065e-01 -3.201660000000000061e-01 2.311501999999999946e+00 1.366889999999999938e+00 -5.743489999999999984e-01 -2.324164000000000119e+00 -2.057856000000000130e+00 9.057749999999999968e-01 -1.072649999999999992e-01 1.364138999999999990e+00 -3.213588999999999807e+00 -4.380950000000000122e-01 -1.903634999999999966e+00 -5.983039999999999470e-01 9.732300000000000673e-02 -3.070490000000000164e-01 7.026000000000000127e-03 1.667141999999999902e+00 -3.895850000000000146e-01 1.245835999999999943e+00 -6.608260000000000245e-01 -1.834832999999999936e+00 2.441520000000000079e-01 1.186274000000000051e+00 2.877809000000000061e+00 1.844084000000000056e+00 2.527124999999999844e+00 -1.003789000000000042e+00 -3.071575999999999862e+00 1.094398999999999900e+00 -8.759670000000000512e-01 5.516366999999999798e+00 -2.832946000000000186e+00 -3.846713999999999967e+00 3.191050000000000275e-01 4.284129999999999883e-01 5.648250000000000215e-01 1.589717999999999964e+00 -1.086451999999999973e+00 2.596664000000000083e+00 2.347829999999999917e-01 1.823944000000000010e+00 -1.479549999999999921e+00 2.113871000000000056e+00 6.946350000000000025e-01 3.723389999999999755e-01 6.113948999999999856e+00 -3.809994999999999798e+00 6.337894999999999612e+00 1.177502000000000049e+00 3.230509999999999771e-01 -4.669699999999999962e-01 1.610041999999999973e+00 2.151698000000000111e+00 3.184930000000000039e+00 -8.092169999999999641e-01 -9.384120000000000239e-01 3.047317000000000053e+00 -3.738361999999999963e+00 8.147450000000000525e-01 1.723141000000000034e+00 8.495340000000000114e-01 3.851319999999999744e-01 1.800120000000000053e-01 -8.258400000000000463e-02 -7.399559999999999471e-01 -1.714714999999999989e+00 5.716700000000000254e-02 -1.405740000000000045e-01 4.211829999999999741e-01 -2.356640000000000068e+00 2.035661000000000165e+00 -1.608890000000000042e-01 -8.096189999999999776e-01 6.320489999999999720e-01 -2.402140000000000108e-01 -1.385118999999999989e+00 -9.592450000000000143e-01 -1.084213000000000093e+00 -2.436227000000000142e+00 5.250869999999999704e-01 -5.141869999999999497e-01 -1.434685999999999906e+00 7.334899999999999753e-02 -3.743198000000000025e+00 -2.026440000000000019e+00 4.857819999999999916e-01 9.838419999999999943e-01 -6.818760000000000376e-01 -1.106254999999999988e+00 2.352708999999999939e+00 1.954798000000000036e+00 -6.861100000000000532e-02 2.584646999999999917e+00 2.199269999999999836e+00 -1.372705999999999982e+00 7.474589999999999845e-01 -1.198603000000000085e+00 -1.113642999999999939e+00 2.286194000000000059e+00 -6.132539999999999658e-01 1.261938999999999922e+00 1.132999999999999893e-03 1.333463999999999983e+00 -1.984866999999999937e+00 -2.329789999999999917e-01 1.422536000000000023e+00 -1.481419999999999959e+00 -1.388106000000000062e+00 -3.514799999999999869e-02 3.528319999999999790e-01 1.893985999999999947e+00 3.969460000000000210e-01 3.737590000000000079e-01 1.241939999999999988e-01 -1.374533999999999923e+00 -2.110479000000000216e+00 2.054483999999999977e+00 3.028697000000000195e+00 8.697789999999999688e-01 8.886309999999999487e-01 1.387054999999999927e+00 -7.032040000000000513e-01 -2.685947999999999780e+00 -6.740469999999999517e-01 1.751330000000000109e-01 -5.156119999999999592e-01 9.561960000000000459e-01 -8.730529999999999680e-01 2.412620000000000042e-01 -3.506635999999999864e+00 7.898760000000000225e-01 -1.229570999999999970e+00 -4.531342999999999677e+00 1.868870000000000031e+00 -2.927573000000000203e+00 -2.416419999999999957e-01 -1.881324999999999914e+00 -8.969900000000000095e-02 -6.037379999999999969e-01 -4.873600000000000154e-01 -2.053385000000000016e+00 1.255835999999999952e+00 -1.835950000000000082e-01 -1.711757999999999891e+00 1.018745999999999929e+00 1.034813999999999901e+00 -2.868090000000000028e+00 -8.968730000000000313e-01 5.812749999999999861e-01 -8.137010000000000076e-01 -5.999809999999999865e-01 1.642543000000000086e+00 2.564814000000000149e+00 -3.173239999999999950e-01 2.455620000000000025e-01 -3.013149999999999995e-01 9.948799999999999866e-01 -3.270699999999999996e-02 3.488140000000000129e-01 2.598280000000000034e-01 2.139099999999999890e-01 3.461540000000000172e-01 1.708280000000000076e-01 -6.299510000000000387e-01 9.301329999999999876e-01 -5.312069999999999848e-01 -1.606892999999999905e+00 1.505678999999999990e+00 -2.099076000000000164e+00 -4.515626000000000140e+00 9.385250000000000536e-01 -4.044997000000000398e+00 1.312090999999999896e+00 -1.122632999999999992e+00 -1.645944999999999991e+00 -3.838139999999999885e-01 -7.929939999999999767e-01 1.994569999999999954e-01 1.458563000000000054e+00 -1.882187999999999972e+00 1.349226000000000036e+00 -3.488299999999999734e-02 -6.375269999999999548e-01 5.318880000000000274e-01 -1.200628999999999946e+00 2.169643000000000210e+00 4.090090000000000114e-01 5.392670000000000519e-01 1.407016000000000044e+00 7.977199999999999569e-02 7.104160000000000474e-01 -2.347199999999999981e-02 -3.313519999999999799e-01 -1.931809999999999916e-01 8.495080000000000409e-01 1.783540000000000125e-01 -1.099081999999999892e+00 -9.564089999999999536e-01 2.121515000000000040e+00 -9.509309999999999707e-01 -4.662890000000000090e-01 -1.636087000000000069e+00 3.839259999999999895e-01 -2.015715000000000146e+00 2.166999999999999815e+00 2.000131000000000103e+00 2.461975999999999942e+00 2.197732999999999937e+00 2.443378000000000050e+00 3.770185999999999815e+00 3.201960000000000139e+00 1.594346999999999959e+00 -2.593519999999999825e+00
1.445016000000000078e+00 2.455920000000000047e-01 1.320872999999999964e+00 -6.049459999999999837e-01 1.341623999999999928e+00 -1.185778999999999916e+00 -2.398854000000000042e+00 1.092540000000000039e-01 1.009779999999999983e-01 -3.129370000000000207e-01 1.334729999999999972e+00 9.850399999999999434e-02 8.744599999999999596e-02 -1.093585000000000029e+00 2.218894000000000144e+00 1.537870999999999988e+00 -2.572591000000000072e+00 5.032039999999999846e-01 -4.090513999999999761e+00 1.599193000000000087e+00 1.221143000000000089e+00 -2.112235000000000085e+00 -2.131999999999999867e-02 3.798920000000000075e-01 1.012537000000000020e+00 2.259720000000000062e-01 -1.301485000000000003e+00 2.924729999999999830e-01 -4.117819999999999814e-01 -1.069944000000000006e+00 2.068869999999999987e+00 3.215569999999999817e-01 5.278659999999999464e-01 -4.818999999999999673e-02 4.227469999999999839e-01 1.519850000000000090e-01 -8.897299999999999653e-02 -1.563622999999999985e+00 7.060950000000000282e-01 7.981599999999999806e-01 -1.021020000000000039e+00 -2.832193999999999878e+00 -2.249457000000000040e+00 -6.337009999999999588e-01 -1.140926000000000107e+00 1.114869000000000110e+00 9.987270000000000314e-01 -6.598420000000000396e-01 -5.524899999999999950e-02 -2.481824000000000030e+00 6.758750000000000036e-01 1.176971999999999907e+00 1.214633999999999991e+00 -5.148030000000000106e-01 1.924811000000000050e+00 -3.629609999999999781e-01 -4.832800000000000290e-02 -1.650969999999999938e-01 -2.596160000000000134e-01 2.377234000000000069e+00 -2.846207000000000154e+00 2.301368000000000080e+00 1.316478000000000037e+00 -2.060820000000000096e+00 -1.802364999999999995e+00 -1.394152000000000058e+00 2.612302999999999820e+00 -8.781619999999999981e-01 7.104219999999999979e-01 6.789110000000000422e-01 3.527756000000000114e+00 2.660690999999999917e+00 -8.867080000000000517e-01 -1.579115000000000046e+00 1.768220000000000069e-01 8.827650000000000219e-01 -1.107677000000000023e+00 1.236521999999999899e+00 -7.693560000000000398e-01 1.211292000000000035e+00 2.626916000000000029e+00 1.792564000000000046e+00 -6.800519999999999898e-01 3.886350000000000082e-01 -9.531490000000000240e-01 1.136084000000000094e+00 -1.398803999999999936e+00 1.672838000000000047e+00 9.408480000000000176e-01 7.667819999999999636e-01 -1.315617000000000036e+00 -3.241420999999999886e+00 -5.033900000000000180e-02 -2.729848000000000052e+00 -8.471399999999999764e-02 -1.043050999999999950e+00 -1.175812000000000079e+00 3.186400000000000343e-02 -6.915689999999999893e-01 5.401430000000000398e-01 -1.597050000000000136e-01 -1.033087000000000089e+00 -1.773276000000000074e+00 9.480939999999999923e-01 -1.360249000000000041e+00 -1.481222000000000039e+00 -8.065229999999999899e-01 -3.034546999999999883e+00 -4.778350000000000097e-01 -6.864740000000000286e-01 -5.747759999999999536e-01 -1.910830000000000028e-01 3.695740000000000136e-01 1.514707000000000026e+00 1.997260999999999953e+00 6.439319999999999489e-01 -3.795040000000000080e-01 -7.896899999999999753e-02 -2.838769999999999905e-01 -8.764509999999999801e-01 -1.256618999999999930e+00 -5.242890000000000050e-01 -1.388600000000000077e-02 -9.334789999999999477e-01 -5.462390000000000301e-01 -6.882770000000000277e-01 -2.082631999999999817e+00 -1.773959999999999981e-01 -1.803293999999999953e+00 3.075260000000000216e-01 3.571949999999999847e-01 -1.501600000000000046e+00 -1.324960000000000027e-01 6.350930000000000186e-01 -6.046949999999999825e-01 1.191809999999999953e-01 2.157150999999999819e+00 -7.203640000000000043e-01 8.249480000000000146e-01 1.616800999999999933e+00 -1.143958999999999948e+00 5.877050000000000329e-01 -3.815700000000000203e-01 -3.148920000000000052e-01 -2.671939999999999871e-01 6.050839999999999552e-01 1.374130000000000074e+00 2.964970000000000105e-01 2.060675999999999952e+00 3.069629999999999859e-01 3.177159999999999984e-01 -1.435119000000000034e+00 3.156059999999999977e-01 4.534020000000000272e-01 -5.455740000000000034e-01 1.091699999999999893e+00 1.565209999999999935e-01 1.627267999999999937e+00 1.285970999999999975e+00 -2.525419999999999887e-01 9.073830000000000506e-01 6.362200000000000077e-01 2.491454000000000057e+00 -2.768510000000000026e+00 3.959449999999999914e-01 1.334837000000000051e+00 -8.086670000000000247e-01 9.957120000000000415e-01 6.968640000000000390e-01 7.082570000000000254e-01 1.881500000000000117e-01 -1.460514000000000090e+00 -1.251808000000000032e+00 -1.904000000000000137e-01 8.187919999999999643e-01 -5.359420000000000295e-01 -1.896519999999999873e-01 -2.339211000000000151e+00 -9.268079999999999652e-01 -5.690400000000000319e-02 1.805399999999999894e+00 4.229029999999999734e-01 -1.561358999999999941e+00 3.203880000000000061e-01 7.950679999999999970e-01 -1.049611999999999989e+00 -3.107409000000000088e+00 -1.012034000000000100e+00 -1.131486999999999910e+00 1.062608999999999915e+00 -6.964029999999999943e-01 2.946440000000000170e-01 8.942470000000000141e-01 5.813859999999999584e-01 -1.252739999999999965e-01 5.181069999999999842e-01 1.291965000000000030e+00 -1.678819999999999979e+00 6.647910000000000208e-01 -1.341070000000000040e-01 -8.324650000000000105e-01 2.689799999999999969e-01 -1.921758999999999995e+00 4.555339999999999945e-01 7.251630000000000020e-01 -1.849240000000000050e-01 -2.462610000000000077e-01 6.423940000000000206e-01 -7.799009999999999554e-01 3.131419999999999759e-01 -7.542170000000000263e-01 -1.697246000000000032e+00 -1.562534000000000090e+00 -3.071010000000000129e-01 -9.886460000000000248e-01 -4.879470000000000196e-01 -1.353493000000000057e+00 5.330230000000000246e-01 8.445270000000000277e-01 -6.080560000000000409e-01 1.311288999999999927e+00 -2.107140000000000124e-01 2.518031000000000130e+00 5.577119999999999855e-01 1.380789999999999962e+00 8.497160000000000268e-01 1.048940000000000011e-01 -2.591820000000000235e-01 -4.737140000000000239e-01 1.485170000000000101e-01 -1.852198999999999929e+00 1.619669000000000025e+00 4.499119999999999786e-01 2.813459999999999850e-01 4.334709999999999952e-01 -1.203135999999999983e+00 1.182509999999999950e-01 -1.647531999999999996e+00 1.085595000000000088e+00 2.781600000000000183e-01 -3.727559999999999762e-01 1.122839999999999949e-01 4.158930000000000127e-01 6.761310000000000375e-01 3.420679999999999832e-01 -2.506959999999999744e-01 -4.675639999999999796e-01 8.282599999999999962e-01 2.316387999999999892e+00 -8.461809999999999610e-01 -9.627820000000000267e-01 2.526459999999999817e-01 -1.444969999999999866e-01 7.059100000000000374e-01 9.310699999999999532e-02 3.048819999999999864e-01 -1.639190000000000091e-01 7.159659999999999913e-01 -6.476499999999999480e-01 9.032329999999999526e-01 1.360405000000000086e+00 4.349759999999999738e-01 -7.077780000000000182e-01 -9.722799999999999498e-02 -3.051500000000000046e-02 5.606349999999999945e-01 -1.628567000000000098e+00 1.632969999999999977e-01 3.920540000000000136e-01 5.764899999999999469e-01 1.739231999999999889e+00 -1.241929999999999978e+00 -1.392579999999999929e-01 1.478336000000000094e+00 1.947411999999999921e+00 2.068894999999999929e+00 1.536181999999999936e+00 1.182088000000000028e+00 -2.392469999999999875e-01 -3.455289999999999750e-01 -5.273649999999999727e-01 1.133502999999999927e+00