-9.419962208299999702e+02
-9.122482571799999960e+02
-9.336207701099999667e+02
-9.301404981399999770e+02
-9.222941754400000036e+02
-9.275561175499999536e+02
-9.346113877200000388e+02
-9.153720442600000524e+02
-9.205154596400000173e+02
-9.204469004999999697e+02
-9.346083410500000355e+02
-9.336977366500000244e+02
-9.172750347800000554e+02
-9.219657699299999649e+02
-9.139984836600000335e+02
-9.167125545799999600e+02
-9.069014681899999459e+02
-9.241176792300000216e+02
-9.258767069299999548e+02
-9.200172485499999766e+02
-9.298694673600000442e+02
-9.254736174500000061e+02
-9.269096428699999706e+02
-9.461629399600000170e+02
-9.358689620999999761e+02
-9.308214183200000207e+02
-9.345680190699999912e+02
-9.363809364500000356e+02
-9.327608319099999790e+02
-9.311247014499999750e+02
-9.128870618199999853e+02
-9.293156120700000429e+02
-9.236976543700000093e+02
-9.128930251000000453e+02
-9.239418281800000159e+02
-9.227285194099999899e+02
-9.246142725099999780e+02
-9.384184353599999895e+02
-9.368897176200000558e+02
-9.246282886899999767e+02
-9.418992097899999862e+02
-9.233633287200000268e+02
-9.256511024400000451e+02
-9.227981145700000525e+02
-9.250954649100000324e+02
-9.301836182199999712e+02
-9.341774315200000274e+02
-9.210278196399999615e+02
-9.419407056700000567e+02
-9.322815744900000254e+02
-9.287172625099999550e+02
-9.126173631499999601e+02
-9.175374338000000307e+02
-9.279495266300000367e+02
-9.207632732199999737e+02
-9.264145155500000328e+02
-9.197892668499999900e+02
-9.232729344900000115e+02
-9.116230131700000356e+02
-9.138676324100000556e+02
-9.307064040499999464e+02
-9.323471831099999463e+02
-9.249751198400000476e+02
-9.324520139300000210e+02
-9.225837198100000478e+02
-9.322825013000000354e+02
-9.262606795399999555e+02
-9.413691724799999747e+02
-9.306310978599999544e+02
-9.333627798100000064e+02
-9.362914792699999680e+02
-9.124869072300000425e+02
-9.149564614399999982e+02
-9.319968212799999492e+02
-9.087044072600000391e+02
-9.163954414300000053e+02
-9.259332706699999562e+02
-9.163026961299999584e+02
-9.242906346099999837e+02
-9.375361665699999776e+02
-9.460552287900000010e+02
-9.221321507200000269e+02
-9.262031674400000156e+02
-9.323230037800000218e+02
-9.310054521600000044e+02
-9.250808416200000011e+02
-9.080240887899999507e+02
-9.283658047899999701e+02
-9.220112895500000150e+02
-9.267695257999999967e+02
-9.127370208199999979e+02
-9.281283926700000393e+02
-9.334092255199999499e+02
-9.123994170400000030e+02
-9.211501402899999675e+02
-9.253003645200000165e+02
-9.272796437700000070e+02
-9.344462324400000170e+02
-9.252124532100000351e+02
-9.319340707999999722e+02
