-2.102177433470880263e+00 -1.381272686988255849e+01 -5.963768523609624950e+00 -1.381272686988255849e+01 -8.640151019019068457e+00 6.114619624613443882e+00 -5.963768523609624950e+00 6.114619624613443882e+00 -6.932033306544468587e+01
5.500265163430936610e+01 4.704012711739763652e+00 -4.842331076360704145e+00 4.704012711739763652e+00 1.289354906420367541e+01 -4.477030037282747621e+00 -4.842331076360704145e+00 -4.477030037282747621e+00 9.890029165390563648e+00
4.587497282229644924e+01 1.124128336456314159e+01 6.006374138652228467e+00 1.124128336456314159e+01 5.346718380502689882e+01 -4.082791511804762408e+00 6.006374138652228467e+00 -4.082791511804762408e+00 -6.930481658816092683e+00
4.973422513345781937e+01 -9.738146268221347768e+00 1.097059178989945138e+01 -9.738146268221347768e+00 4.639471494541042773e+01 -1.198357910807681392e+00 1.097059178989945138e+01 -1.198357910807681392e+00 1.647055631473275383e+00
-1.570889927279023546e+01 2.839735518609461384e-01 -3.416724452387079891e-01 2.839735518609461384e-01 -1.958786582673665011e+00 -8.641600315522595110e+00 -3.416724452387079891e-01 -8.641600315522595110e+00 -3.335698495867131186e+01
-1.602396418734058869e+01 5.830279577577748285e+00 1.879665313030818075e+00 5.830279577577748285e+00 -1.818942984480499092e+01 -1.107931771914626751e+01 1.879665313030818075e+00 -1.107931771914626751e+01 -1.932199117349365380e+01
-7.612536810769276130e+00 6.313640939713709876e+00 -6.553320661639444822e+00 6.313640939713709876e+00 -1.513209404337104758e+01 -6.800416378355355063e-01 -6.553320661639444822e+00 -6.800416378355355063e-01 -5.044608066680006431e+01
-1.710920161751486290e+01 -1.057279882528372461e+00 -1.686257840487606630e-01 -1.057279882528372461e+00 -4.200415457769221206e+01 7.400806384228419965e-01 -1.686257840487606630e-01 7.400806384228419965e-01 -3.060142527763691334e+01
1.270590505700604034e+01 -5.492681039500775242e+00 1.255560697303316253e+01 -5.492681039500775242e+00 1.674515915923453591e+01 4.283992520296425077e+00 1.255560697303316253e+01 4.283992520296425077e+00 -9.299224436923045900e+00
-1.811005020513836428e+01 -2.312757391915518923e+01 -2.830716107493918554e-01 -2.312757391915518923e+01 -1.567184647935051522e+01 5.563513891028104119e+00 -2.830716107493918554e-01 5.563513891028104119e+00 -4.294221957154574199e+01
2.043022783111127794e+01 2.640872689427995468e+00 2.200465632690149498e+00 2.640872689427995468e+00 3.280394430740558676e+01 7.576321527779263043e+00 2.200465632690149498e+00 7.576321527779263043e+00 -2.074183439909918647e+01
2.591862455320514513e+01 1.235124360529279741e+01 -1.742193053572075989e+00 1.235124360529279741e+01 1.049974664299532456e+00 -6.810904358935266245e+00 -1.742193053572075989e+00 -6.810904358935266245e+00 -1.733819065487249134e+01
-2.635173287712569135e+01 -1.007924471437467595e+01 -8.761546581987529336e+00 -1.007924471437467595e+01 -1.508981338265600591e+01 -8.307473426663079863e+00 -8.761546581987529336e+00 -8.307473426663079863e+00 -9.215944943059805894e+01
-1.380563318498510661e+01 -1.341073263590321041e+01 -1.318704656315634161e+01 -1.341073263590321041e+01 -2.921815498862954996e+00 1.090894325032276591e+01 -1.318704656315634161e+01 1.090894325032276591e+01 -4.085467407417443297e+01
8.731516944022702731e+00 -1.044117924556995014e+01 6.260571977926999487e+00 -1.044117924556995014e+01 9.928398961771986997e-01 1.437698795074083158e+01 6.260571977926999487e+00 1.437698795074083158e+01 -3.659175355301063348e+01
5.920161426496758361e-01 -8.235049796897710550e+00 -1.607641382900114735e+01 -8.235049796897710550e+00 4.011042077835448971e+00 1.153690197847260929e-01 -1.607641382900114735e+01 1.153690197847260929e-01 -3.468545434463124622e+01
6.503015105122308626e+00 -9.531215988888959156e-01 -1.609017478381684541e+01 -9.531215988888959156e-01 5.466380666966615287e+00 -2.534847340224663181e+00 -1.609017478381684541e+01 -2.534847340224663181e+00 -1.217433677527480640e+01
6.599159610880084870e+01 1.725839973514036618e+00 2.224437602614739617e+01 1.725839973514036618e+00 4.373365897580466566e+01 -4.197743960125594143e+00 2.224437602614739617e+01 -4.197743960125594143e+00 1.853147665938547206e+01
5.886201470810220115e+01 -3.838093802476825189e+00 1.098924207216093762e+01 -3.838093802476825189e+00 3.656110265078638122e+01 -7.328740619521015631e+00 1.098924207216093762e+01 -7.328740619521015631e+00 -1.424295091057416585e+00
5.114046436718943056e+01 1.255574162952592943e+00 1.372054144132422948e+01 1.255574162952592943e+00 4.597759417333912779e+01 -8.536760169410692711e+00 1.372054144132422948e+01 -8.536760169410692711e+00 2.036247468057514887e+00
5.334672643336416442e+00 -2.694135831929436620e+00 -1.484446394895987120e-01 -2.694135831929436620e+00 9.980527092646598319e-01 -6.365399269522328041e+00 -1.484446394895987120e-01 -6.365399269522328041e+00 -3.980035186117058998e+01
-1.388945719604350160e+01 -1.153920155114978563e+01 -2.812228741521137221e-01 -1.153920155114978563e+01 -6.673582021236335926e+00 4.118833479889419280e+00 -2.812228741521137221e-01 4.118833479889419280e+00 -2.001862883748789557e+01
3.490341793415863947e+01 1.465089211505254241e+01 9.193233295193000032e+00 1.465089211505254241e+01 1.755676838448548338e+01 7.650297633297005184e+00 9.193233295193000032e+00 7.650297633297005184e+00 -3.999045057390613778e+01
-8.377101669163581121e+00 -3.188757507500876720e+00 1.132687088283121568e+01 -3.188757507500876720e+00 -2.631687551396876046e+01 -4.013984316069335812e+00 1.132687088283121568e+01 -4.013984316069335812e+00 -3.197169814957010558e+01
-1.047279846846103446e+01 4.923967432922007781e+00 -1.939309075290558182e+00 4.923967432922007781e+00 -1.258880136878006220e-02 7.889770751366883772e+00 -1.939309075290558182e+00 7.889770751366883772e+00 -2.204311088891692805e+01
-4.126746647665218148e+00 -7.560869192416949325e+00 5.596007729257881369e-01 -7.560869192416949325e+00 -6.149823036342241700e+00 -4.390900139331088248e+00 5.596007729257881369e-01 -4.390900139331088248e+00 -1.142898644400603558e+01
4.273965038603723343e+01 7.042745839519034767e+00 1.210105179993020741e+01 7.042745839519034767e+00 4.351189898950075730e+01 5.627484465700091754e+00 1.210105179993020741e+01 5.627484465700091754e+00 1.805417828024904248e+00
9.729132410178426227e+00 5.171986598246125055e+00 -7.645107952021276354e+00 5.171986598246125055e+00 -8.119613592329067986e-01 -3.883426421029636977e+00 -7.645107952021276354e+00 -3.883426421029636977e+00 -3.476489265648110916e+01
2.821994372526895134e+01 1.062859942405842517e+01 -2.864622224124490746e+00 1.062859942405842517e+01 2.749673998562325750e+01 8.482919247161516907e+00 -2.864622224124490746e+00 8.482919247161516907e+00 -2.358084566128172810e+01
5.537416014045345669e+00 1.228450973620394748e+01 3.567621226123528722e+00 1.228450973620394748e+01 -1.254964733269442245e+00 -8.232996611594504799e+00 3.567621226123528722e+00 -8.232996611594504799e+00 -3.360273675982965003e+00
-1.182323028318071856e+01 3.394791131938535322e+00 -7.928530353621709104e+00 3.394791131938535322e+00 -2.108835316848524499e+01 -8.998351291120048501e+00 -7.928530353621709104e+00 -8.998351291120048501e+00 -2.923249692532105115e+01
5.019802562363661735e+01 -1.294463364439416608e+01 8.720657985917320332e+00 -1.294463364439416608e+01 3.792101707347187300e+01 1.837284702178839935e-01 8.720657985917320332e+00 1.837284702178839935e-01 9.604953108947823281e+00
2.251607809298349849e+01 -1.048996238104089596e+00 4.489950347089703087e+00 -1.048996238104089596e+00 4.512518338485594249e+00 -9.242395509439955248e+00 4.489950347089703087e+00 -9.242395509439955248e+00 -1.049766041982378795e+01
-1.328619245749092492e+01 -4.240043108886057510e+00 9.056096311976453705e+00 -4.240043108886057510e+00 -1.423400692871646456e+01 8.860191356653193684e-02 9.056096311976453705e+00 8.860191356653193684e-02 -2.656547923914884279e+01
2.733288764427004303e+00 -9.709081502944664877e+00 1.512105125334572797e+01 -9.709081502944664877e+00 -1.683410619691254695e+01 2.371921684163468047e+00 1.512105125334572797e+01 2.371921684163468047e+00 -3.850828938678743185e+01
5.055871272673584826e+01 6.360079579692475171e+00 -1.571578081724244846e+00 6.360079579692475171e+00 3.065854096192273914e+01 1.711532793678236075e+01 -1.571578081724244846e+00 1.711532793678236075e+01 -1.238374970574962708e+00
-1.439027815040068248e+01 8.737565676538036286e+00 -2.817994098726837482e+00 8.737565676538036286e+00 -1.870700051131453634e+01 1.192364401009064379e+00 -2.817994098726837482e+00 1.192364401009064379e+00 -4.837600271429496956e+01
5.744879856671463614e+01 6.246686738622373447e+00 7.131585400408063435e+00 6.246686738622373447e+00 5.162053960064809388e+01 -1.014154407676828917e+01 7.131585400408063435e+00 -1.014154407676828917e+01 3.509095680273621554e+01
-2.131400554096209632e+01 -1.293600756883876546e+00 1.546935303952745322e+01 -1.293600756883876546e+00 -2.353470112914757806e+01 -4.447080743874249009e+00 1.546935303952745322e+01 -4.447080743874249009e+00 -3.070062283217386323e+01
8.999722465832814322e+00 9.073062860965912524e-01 5.462977753506621070e+00 9.073062860965912524e-01 -1.720738579816648439e+01 -9.314658530361333177e+00 5.462977753506621070e+00 -9.314658530361333177e+00 -1.145096079443589332e+01
2.123986146938538866e+01 3.875791313419224338e+00 3.083749756472613512e+00 3.875791313419224338e+00 4.229163968916112992e+01 1.394888276009529093e+01 3.083749756472613512e+00 1.394888276009529093e+01 -8.231143593155787030e+00
-1.088493866209175387e+01 2.068791970047109530e+01 -1.026761915042481377e+01 2.068791970047109530e+01 -1.895991144706886544e+01 2.441359876845281551e+00 -1.026761915042481377e+01 2.441359876845281551e+00 -3.051852013283857801e+01
-1.296054662955712189e+01 7.317753345867333614e+00 4.525141649357772522e+00 7.317753345867333614e+00 -1.338021316162207874e+01 -4.330398365599956279e+00 4.525141649357772522e+00 -4.330398365599956279e+00 -2.864252051653387454e+01
-1.984957976601853957e+01 -2.307113039625333428e+00 1.887712866459447270e+01 -2.307113039625333428e+00 -6.292152556184112200e+01 -1.113860902063747327e+00 1.887712866459447270e+01 -1.113860902063747327e+00 -2.284574148071857636e+01
2.277141620347876927e+00 -5.255090720116999126e-02 7.927091623900198947e+00 -5.255090720116999126e-02 -6.090002653448276071e+00 -5.624622686645105452e-01 7.927091623900198947e+00 -5.624622686645105452e-01 -2.159956062371290741e+01
-1.174079134347193509e+01 1.492890658223929812e+01 -1.553033449786287257e+01 1.492890658223929812e+01 4.422167112457926486e+00 -1.167997354113640363e+01 -1.553033449786287257e+01 -1.167997354113640363e+01 -3.104179245683235067e+01
4.745343102407413305e+00 -1.370511471866081266e+01 -8.187975566910045799e+00 -1.370511471866081266e+01 -7.993153473629165617e+00 -8.481108219184916308e+00 -8.187975566910045799e+00 -8.481108219184916308e+00 -4.831236055923123018e+01
-4.472741905511457006e+00 -9.542490112573837280e+00 1.105796711156585133e+01 -9.542490112573837280e+00 -9.669400264143554580e+00 -8.854585973219702311e+00 1.105796711156585133e+01 -8.854585973219702311e+00 -1.069413201040486072e+01
2.868129674209606250e+01 1.325693764934492869e+01 -2.982133198952682474e+00 1.325693764934492869e+01 1.780923883058105517e+01 -5.329456112883576679e+00 -2.982133198952682474e+00 -5.329456112883576679e+00 -2.531703357009167732e+01
3.312302897936674384e+01 -9.156958182880789110e+00 3.333346521598485879e+01 -9.156958182880789110e+00 1.666690949977165204e+01 -3.687435489110214348e+00 3.333346521598485879e+01 -3.687435489110214348e+00 -3.370264918932578180e+00
