4.969109999999999694e+00 2.982000000000000206e+00 2.426229999999999887e+00 3.903910000000000213e+00 3.020150000000000112e+00 7.832869999999999777e+00 4.767619999999999969e+00 8.225030000000000285e+00 2.594899999999999984e+00 3.666700000000000070e+00 8.201280000000000570e+00 7.759210000000000385e+00 9.632540000000000546e+00 3.050269999999999815e+00 2.687959999999999905e+00 8.825450000000000017e+00 3.062699999999999978e+00 7.878860000000000419e+00 -4.150099999999999900e-01 8.211869999999999337e+00 2.949129999999999807e+00 8.680580000000000851e+00 8.197850000000000747e+00 8.130900000000000460e+00 1.652279999999999971e+00 5.261799999999999811e-01 3.083070000000000199e+00 9.166499999999999648e-01 3.802800000000000069e-01 8.370509999999999451e+00 1.873920000000000030e+00 5.674489999999999590e+00 3.168899999999999828e+00 7.618300000000000072e-01 5.467830000000000190e+00 8.595250000000000057e+00 6.910999999999999588e+00 4.383799999999999919e-01 3.258620000000000072e+00 6.089850000000000207e+00 2.830300000000000038e-01 8.245770000000000266e+00 6.903590000000000337e+00 5.774689999999999657e+00 2.797530000000000072e+00 6.046899999999999942e+00 5.462769999999999904e+00 8.236290000000000333e+00 2.101100000000000190e+00 2.981650000000000134e+00 4.634599999999999831e-01 1.340780000000000083e+00 2.683710000000000040e+00 5.835429999999999673e+00 2.287949999999999928e+00 7.920049999999999812e+00 4.824800000000000200e-01 1.315900000000000070e+00 7.701590000000000380e+00 5.974459999999999660e+00 7.863209999999999589e+00 2.793950000000000156e+00 3.846600000000000019e-01 6.530289999999999928e+00 2.672200000000000131e+00 5.654239999999999711e+00 7.303460000000000285e+00 7.664740000000000109e+00 1.463299999999999879e-01 6.488739999999999952e+00 7.945929999999999715e+00 5.582679999999999865e+00 3.327929999999999833e+00 5.022780000000000022e+00 1.026906999999999925e+01 4.312000000000000277e+00 5.119919999999999582e+00 5.123829999999999885e+00 3.393279999999999852e+00 1.606499999999999873e-01 1.038207000000000058e+01 4.049680000000000391e+00 1.034797999999999973e+01 4.990730000000000111e+00 1.005924000000000085e+01 5.296499999999999986e+00 3.380299999999999971e-01 -8.570499999999999785e-01 5.240520000000000067e+00 5.232840000000000380e+00 6.775000000000000466e-02 1.538200000000000123e-01 1.562699999999999922e-01 9.235500000000000043e+00 1.038937999999999917e+01 5.345390000000000086e+00 3.387760000000000105e+00 4.699919999999999654e+00 3.469840000000000035e+00 2.274709999999999788e+00 4.205829999999999735e+00 8.772610000000000241e+00 3.291539999999999910e+00 9.528790000000000759e+00 3.353099999999999969e+00 2.338579999999999881e+00 9.477629999999999555e+00 8.514260000000000161e+00 8.567520000000000024e+00 4.692260000000000097e+00 3.189490000000000158e+00 8.231199999999999406e+00 3.784879999999999800e+00 6.093320000000000292e+00 8.615449999999999164e+00 9.621010000000000062e+00 3.589350000000000041e+00 7.233760000000000190e+00 9.191190000000000637e+00 9.259470000000000312e+00 2.737499999999999822e+00 2.076659999999999950e+00 2.208120000000000083e+00 2.294309999999999850e+00 1.934709999999999930e+00 7.285070000000000157e+00 3.188320000000000043e+00 7.010769999999999946e+00 2.147510000000000030e+00 2.040410000000000057e+00 6.846219999999999750e+00 7.728430000000000355e+00 7.781450000000000422e+00 2.065469999999999917e+00 2.416319999999999801e+00 7.055380000000000429e+00 2.021970000000000045e+00 7.692260000000000097e+00 8.306089999999999307e+00 7.275479999999999947e+00 2.058370000000000033e+00 7.342620000000000147e+00 6.913129999999999775e+00 7.175239999999999618e+00 2.341839999999999922e+00 1.279290000000000038e+00 4.891619999999999635e+00 1.568990000000000107e+00 1.276739999999999986e+00 9.987690000000000623e+00 2.428290000000000060e+00 6.345279999999999809e+00 4.921450000000000102e+00 1.755200000000000093e+00 6.367370000000000196e+00 1.007766999999999946e+01 7.324849999999999639e+00 1.039220000000000033e+00 5.081570000000000142e+00 6.767820000000000391e+00 9.333799999999999875e-01 1.011356999999999928e+01 7.592279999999999696e+00 6.631050000000000111e+00 4.658009999999999984e+00 7.224750000000000227e+00 6.741579999999999906e+00 9.844920000000000115e+00 4.001430000000000042e+00 3.821989999999999998e+00 8.920900000000000496e-01 2.972170000000000201e+00 3.906120000000000037e+00 6.068800000000000416e+00 4.043800000000000061e+00 8.817460000000000520e+00 5.634299999999999864e-01 2.883179999999999854e+00 8.829119999999999635e+00 6.029560000000000031e+00 -1.532600000000000073e-01 1.435300000000000020e+00 4.148299999999999876e+00 -1.210860000000000047e+00 1.861930000000000085e+00 9.595340000000000202e+00 1.713999999999999968e-01 6.847070000000000434e+00 4.200149999999999828e+00 -4.778100000000000125e-01 6.933970000000000411e+00 9.388909999999999201e+00 5.123879999999999768e+00 1.456090000000000106e+00 3.774709999999999788e+00 4.355030000000000179e+00 1.315560000000000063e+00 8.925950000000000273e+00 5.361570000000000391e+00 6.837530000000000108e+00 3.966829999999999856e+00 4.634330000000000283e+00 6.453439999999999621e+00 9.420170000000000599e+00 9.865699999999999470e-01 4.121599999999999930e+00 1.656320000000000014e+00 2.952799999999999869e-01 4.102750000000000341e+00 6.824449999999999683e+00 1.071560000000000068e+00 9.394030000000000769e+00 1.714329999999999909e+00 -1.489000000000000046e-02 9.304840000000000444e+00 7.233369999999999855e+00 6.501290000000000013e+00 4.329620000000000246e+00 1.519579999999999931e+00 5.379809999999999981e+00 4.173300000000000232e+00 6.669069999999999609e+00 6.096980000000000288e+00 9.512420000000000542e+00 1.503160000000000052e+00 5.055200000000000138e+00 9.463240000000000762e+00 6.698400000000000354e+00 5.782199999999999562e-01 4.138200000000000323e+00 4.293120000000000047e+00 -5.388100000000000112e-01 4.200260000000000105e+00 9.478849999999999554e+00 8.864100000000000312e-01 9.374890000000000612e+00 4.229499999999999815e+00 -2.873299999999999743e-01 9.483240000000000336e+00 9.704660000000000508e+00 5.863290000000000113e+00 4.056060000000000443e+00 3.996840000000000170e+00 4.903240000000000265e+00 4.088059999999999583e+00 9.263080000000000425e+00 5.740719999999999601e+00 9.288959999999999440e+00 4.142629999999999590e+00 4.646180000000000199e+00 9.207649999999999224e+00 9.252530000000000143e+00 2.534699999999999731e-01 1.465479999999999894e+00 1.756669999999999954e+00 -2.197399999999999909e-01 1.473039999999999905e+00 6.920309999999999739e+00 5.002199999999999980e-01 6.797180000000000000e+00 1.318820000000000103e+00 -5.072900000000000187e-01 6.792930000000000135e+00 6.897210000000000285e+00 5.450999999999999623e+00 1.701310000000000100e+00 1.183049999999999935e+00 5.056890000000000107e+00 1.543269999999999920e+00 6.419529999999999959e+00 5.958450000000000024e+00 6.877519999999999634e+00 1.397149999999999892e+00 4.635620000000000296e+00 6.693570000000000242e+00 6.555259999999999643e+00
4.600710000000000299e+00 2.938639999999999919e+00 2.521990000000000176e+00 3.642900000000000027e+00 2.989840000000000053e+00 8.014749999999999375e+00 4.866909999999999847e+00 8.451470000000000482e+00 2.329779999999999962e+00 3.604870000000000019e+00 8.510719999999999175e+00 8.112310000000000798e+00 -4.606000000000000094e-01 3.366890000000000160e+00 2.860219999999999985e+00 -1.338659999999999961e+00 3.028869999999999951e+00 8.177500000000000213e+00 -3.311000000000000054e-01 8.516619999999999635e+00 2.768639999999999990e+00 -1.315560000000000063e+00 8.373849999999999127e+00 7.887780000000000236e+00 1.847909999999999942e+00 3.672500000000000209e-01 3.303069999999999951e+00 8.312100000000000044e-01 7.989399999999999835e-01 8.507270000000000110e+00 2.092389999999999972e+00 6.079060000000000130e+00 2.887340000000000018e+00 7.237099999999999644e-01 5.652580000000000382e+00 8.648110000000000852e+00 7.140130000000000088e+00 5.403799999999999715e-01 3.076769999999999783e+00 6.293269999999999698e+00 3.749700000000000255e-01 8.859989999999999810e+00 7.094089999999999563e+00 5.717920000000000336e+00 3.012329999999999952e+00 6.443509999999999849e+00 5.805579999999999963e+00 8.587389999999999191e+00 2.214869999999999894e+00 2.738239999999999785e+00 5.925000000000000266e-01 1.296750000000000069e+00 2.910089999999999844e+00 5.672710000000000363e+00 2.159089999999999954e+00 8.227660000000000196e+00 3.781999999999999806e-01 1.670570000000000110e+00 7.854610000000000092e+00 5.705779999999999852e+00 7.598390000000000200e+00 2.983179999999999943e+00 7.790700000000000403e-01 6.716569999999999929e+00 2.531340000000000146e+00 6.163070000000000270e+00 7.670490000000000030e+00 8.201000000000000512e+00 5.036899999999999711e-01 6.583669999999999689e+00 7.799970000000000070e+00 5.706199999999999939e+00 3.346490000000000187e+00 5.443550000000000111e+00 1.046444999999999936e+01 4.277879999999999683e+00 5.028769999999999740e+00 5.354049999999999976e+00 5.356440000000000090e+00 1.971900000000000042e-01 1.676600000000000035e-01 4.347760000000000069e+00 1.059781000000000084e+01 5.115599999999999703e+00 1.041164999999999985e+01 5.479560000000000208e+00 1.146299999999999958e-01 9.198980000000000601e+00 5.043619999999999770e+00 5.550099999999999589e+00 1.043234999999999957e+01 7.789999999999999702e-02 1.183300000000000046e-01 9.460990000000000677e+00 1.057661000000000051e+01 5.599809999999999732e+00 3.324780000000000069e+00 4.464800000000000324e+00 3.062399999999999789e+00 2.594930000000000181e+00 4.531080000000000219e+00 8.750379999999999825e+00 3.775500000000000078e+00 1.007222999999999935e+01 3.142409999999999926e+00 2.375579999999999803e+00 9.969979999999999620e+00 8.418189999999999173e+00 9.030359999999999943e+00 4.204310000000000436e+00 1.273840000000000083e+00 8.036799999999999500e+00 4.559940000000000104e+00 8.848919999999999675e+00 8.428649999999999309e+00 9.680239999999999512e+00 3.685979999999999812e+00 9.467869999999999564e+00 9.208690000000000708e+00 8.930299999999999905e-01 2.992020000000000124e+00 1.957349999999999923e+00 2.497700000000000031e+00 2.025230000000000086e+00 1.966939999999999911e+00 7.574539999999999829e+00 3.294130000000000003e+00 7.246970000000000134e+00 2.052049999999999930e+00 2.488630000000000120e+00 7.171770000000000422e+00 7.444029999999999703e+00 8.238830000000000098e+00 1.874489999999999990e+00 2.494650000000000034e+00 7.580849999999999866e+00 1.943940000000000001e+00 7.799249999999999794e+00 8.299950000000000827e+00 7.242609999999999992e+00 2.296380000000000088e+00 7.860179999999999723e+00 6.809859999999999580e+00 7.598220000000000418e+00 2.953640000000000043e+00 1.306489999999999929e+00 4.859569999999999723e+00 1.688490000000000046e+00 9.788299999999999779e-01 1.032424999999999926e+01 3.016789999999999861e+00 6.662709999999999688e+00 4.636720000000000397e+00 1.799490000000000034e+00 6.457429999999999559e+00 1.030235000000000056e+01 7.963709999999999845e+00 1.070910000000000029e+00 5.495350000000000179e+00 7.197490000000000165e+00 1.379699999999999926e+00 1.044924999999999926e+01 7.728850000000000442e+00 6.207180000000000142e+00 4.838460000000000427e+00 7.068509999999999849e+00 6.708879999999999733e+00 1.043024999999999913e+01 3.931220000000000159e+00 3.721769999999999801e+00 7.067200000000000149e-01 2.981770000000000032e+00 3.844869999999999788e+00 6.157890000000000086e+00 4.058729999999999727e+00 9.049649999999999750e+00 4.915100000000000025e-01 2.839210000000000012e+00 9.319340000000000401e+00 5.740929999999999644e+00 4.199700000000000100e-01 1.816300000000000026e+00 4.014730000000000132e+00 -8.098100000000000298e-01 1.737319999999999975e+00 9.655359999999999943e+00 5.602099999999999858e-01 7.047500000000000320e+00 3.552200000000000024e+00 -4.346599999999999908e-01 7.137459999999999916e+00 9.458149999999999835e+00 5.357370000000000410e+00 1.692620000000000013e+00 4.253890000000000171e+00 4.631789999999999630e+00 1.364630000000000010e+00 9.450219999999999843e+00 5.962290000000000312e+00 7.136260000000000048e+00 3.616070000000000118e+00 4.614429999999999588e+00 6.848469999999999835e+00 9.231519999999999726e+00 8.691600000000000437e-01 4.312160000000000437e+00 1.726930000000000076e+00 6.108000000000000235e-02 4.493540000000000312e+00 7.081739999999999924e+00 1.262699999999999934e+00 9.481070000000000775e+00 1.686949999999999950e+00 5.052000000000000240e-02 9.647750000000000270e+00 7.359060000000000379e+00 6.134470000000000312e+00 4.251280000000000392e+00 1.544159999999999977e+00 5.197610000000000063e+00 3.923119999999999941e+00 7.033970000000000056e+00 6.377369999999999983e+00 9.736739999999999284e+00 1.805600000000000094e+00 5.392529999999999824e+00 9.141049999999999898e+00 7.365479999999999805e+00 3.036599999999999855e-01 4.348539999999999850e+00 4.353189999999999671e+00 5.410999999999999838e-02 4.298070000000000057e+00 9.864219999999999544e+00 7.329400000000000359e-01 9.712529999999999220e+00 4.388679999999999914e+00 -6.767699999999999827e-01 9.604820000000000135e+00 9.792809999999999349e+00 5.919410000000000061e+00 4.161270000000000024e+00 4.202749999999999986e+00 5.334439999999999849e+00 4.095049999999999635e+00 9.639480000000000715e+00 5.849109999999999587e+00 9.549419999999999575e+00 4.683709999999999596e+00 5.135679999999999801e+00 9.460390000000000299e+00 1.001355000000000040e+01 6.087700000000000333e-01 1.592840000000000034e+00 1.672469999999999901e+00 -1.349000000000000025e-02 1.601480000000000015e+00 6.487219999999999764e+00 4.775200000000000000e-01 6.934219999999999828e+00 1.394889999999999963e+00 -1.062099999999999989e-01 7.048110000000000319e+00 6.733399999999999608e+00 5.753720000000000390e+00 1.601480000000000015e+00 1.603909999999999947e+00 5.558349999999999902e+00 9.309800000000000297e-01 7.028229999999999755e+00 5.941840000000000011e+00 6.828949999999999854e+00 1.114239999999999897e+00 5.276119999999999699e+00 6.346020000000000216e+00 6.515609999999999680e+00
4.765670000000000073e+00 3.085560000000000080e+00 2.715180000000000149e+00 3.883230000000000182e+00 2.616159999999999819e+00 8.046379999999999200e+00 4.407130000000000436e+00 8.330389999999999517e+00 3.259320000000000217e+00 4.303449999999999775e+00 7.990549999999999820e+00 7.989119999999999777e+00 9.351490000000000080e+00 2.601150000000000073e+00 3.359640000000000182e+00 8.950329999999999231e+00 2.773649999999999949e+00 8.712149999999999395e+00 -3.779899999999999927e-01 8.461100000000000065e+00 3.135250000000000092e+00 8.968799999999999883e+00 8.256610000000000227e+00 8.562810000000000699e+00 2.280229999999999979e+00 7.476000000000000423e-01 2.614559999999999995e+00 8.408999999999999808e-01 2.749500000000000277e-01 9.062369999999999592e+00 1.545209999999999972e+00 6.183779999999999610e+00 3.078430000000000000e+00 1.139029999999999987e+00 5.409830000000000361e+00 8.080780000000000740e+00 7.115090000000000359e+00 1.051281999999999961e+01 3.249890000000000168e+00 6.278369999999999784e+00 1.226600000000000051e-01 8.124390000000000001e+00 7.407549999999999635e+00 5.853089999999999904e+00 2.944580000000000197e+00 6.290440000000000254e+00 5.298239999999999839e+00 7.762199999999999989e+00 2.125799999999999912e+00 3.420799999999999841e+00 7.279499999999999860e-01 1.498559999999999892e+00 3.151139999999999830e+00 5.237289999999999779e+00 2.741039999999999921e+00 7.619329999999999714e+00 4.422099999999999920e-01 1.528690000000000104e+00 8.177759999999999252e+00 6.205680000000000085e+00 7.541750000000000398e+00 2.602609999999999868e+00 1.670800000000000063e-01 6.545630000000000059e+00 2.607819999999999805e+00 5.863430000000000142e+00 7.073870000000000324e+00 7.998789999999999623e+00 3.524700000000000055e-01 7.037379999999999747e+00 8.062739999999999796e+00 5.680659999999999599e+00 3.694890000000000008e+00 5.053689999999999571e+00 1.064404000000000039e+01 4.208870000000000111e+00 5.562940000000000218e+00 4.918050000000000033e+00 5.278780000000000250e+00 4.331599999999999895e-01 8.076999999999999458e-02 3.589710000000000178e+00 5.454999999999999849e-01 5.468320000000000292e+00 8.602639999999999176e+00 5.633650000000000269e+00 1.066135000000000055e+01 9.305830000000000268e+00 5.224370000000000402e+00 5.477369999999999628e+00 9.678100000000000591e+00 1.053992000000000040e+01 5.155300000000000438e-01 -7.730299999999999949e-01 3.901899999999999813e-01 5.563530000000000086e+00 3.382979999999999876e+00 4.872180000000000177e+00 3.089770000000000127e+00 2.882690000000000197e+00 4.527440000000000353e+00 8.104350000000000165e+00 3.458810000000000162e+00 1.023422000000000054e+01 3.700060000000000127e+00 4.552270000000000039e+00 9.126609999999999445e+00 9.577370000000000161e+00 8.941029999999999589e+00 2.695809999999999818e+00 1.662910000000000110e+00 7.478200000000000180e+00 7.229190000000000005e+00 9.226900000000000546e+00 4.874399999999999844e-01 1.174899999999999972e-01 2.057240000000000180e+00 6.068590000000000373e+00 8.843600000000000350e+00 7.361570000000000391e+00 3.554520000000000124e+00 1.512669999999999959e+00 1.362989999999999924e+00 2.587759999999999838e+00 1.924760000000000026e+00 6.458820000000000228e+00 1.354910000000000059e+00 5.210969999999999658e+00 1.214800000000000102e+00 2.482699999999999907e+00 7.124179999999999957e+00 7.867519999999999847e+00 8.526270000000000238e+00 4.286069999999999602e+00 3.942060000000000120e+00 7.907949999999999591e+00 1.498599999999999932e+00 7.007539999999999658e+00 5.657709999999999795e+00 6.818060000000000009e+00 1.119210000000000038e+00 7.224899999999999878e+00 6.309669999999999668e+00 6.390819999999999723e+00 3.166980000000000128e+00 2.279139999999999944e+00 3.906130000000000102e+00 2.315360000000000085e+00 1.715880000000000072e+00 9.521900000000000475e+00 3.423979999999999801e+00 7.374920000000000364e+00 4.680900000000000283e+00 1.754250000000000087e+00 6.093659999999999854e+00 1.008111000000000068e+01 8.070009999999999906e+00 3.988410000000000011e+00 6.599899999999999878e+00 7.582620000000000360e+00 4.050939999999999763e+00 9.302749999999999631e+00 8.874710000000000321e+00 6.672959999999999781e+00 4.062710000000000043e+00 8.479319999999999524e+00 8.864649999999999253e+00 6.519219999999999793e+00 4.161410000000000053e+00 3.894309999999999938e+00 1.052429999999999977e+00 2.476799999999999891e+00 5.363039999999999807e+00 5.560730000000000395e+00 6.029939999999999856e+00 9.311180000000000234e+00 1.881450000000000067e+00 5.437300000000000466e-01 9.404249999999999332e+00 7.510349999999999859e+00 6.081499999999999684e-01 1.442630000000000079e+00 4.496550000000000047e+00 -7.761000000000000121e-01 1.010294000000000025e+01 1.022765000000000057e+01 5.883500000000000396e-01 7.169150000000000134e+00 4.279359999999999609e+00 -7.182800000000000296e-01 7.074239999999999640e+00 1.001632000000000033e+01 5.543090000000000295e+00 1.426020000000000065e+00 4.506809999999999761e+00 4.518119999999999692e+00 9.638400000000000301e-01 9.195270000000000721e+00 5.708479999999999777e+00 6.844129999999999825e+00 3.918620000000000214e+00 4.882419999999999760e+00 6.729619999999999713e+00 9.549649999999999750e+00 9.305900000000000283e-01 2.710290000000000088e+00 2.258109999999999840e+00 4.532499999999999862e-01 3.703040000000000109e+00 6.853570000000000384e+00 1.352970000000000006e+00 8.113490000000000535e+00 1.759130000000000082e+00 7.872700000000000253e-01 9.693899999999999295e+00 4.443719999999999892e+00 6.574250000000000149e+00 3.903360000000000163e+00 1.562680000000000069e+00 5.195640000000000036e+00 3.690259999999999874e+00 6.786769999999999747e+00 9.013519999999999754e+00 8.687960000000000349e+00 9.016399999999999970e-01 3.281480000000000175e+00 9.471709999999999852e+00 6.859289999999999665e+00 6.153100000000000236e-01 4.468399999999999928e+00 3.888209999999999944e+00 -5.276300000000000434e-01 4.268830000000000346e+00 9.777039999999999509e+00 8.062440000000000495e+00 8.894379999999999953e+00 3.555239999999999956e+00 7.475380000000000358e+00 1.676039999999999974e+00 1.011754999999999960e+01 5.928250000000000242e+00 3.931029999999999802e+00 4.015550000000000175e+00 4.394549999999999734e+00 3.718430000000000124e+00 9.640530000000000044e+00 6.127510000000000012e+00 9.471709999999999852e+00 4.833800000000000097e+00 7.945409999999999862e+00 1.004870000000000019e+01 8.938579999999999970e+00 -1.725299999999999889e-01 1.783449999999999980e+00 1.013594999999999935e+01 -1.835600000000000009e-01 1.342559999999999976e+00 7.444399999999999906e+00 9.016679999999999140e+00 5.614919999999999689e+00 1.355029999999999957e+00 -3.506199999999999872e-01 6.460060000000000358e+00 7.216829999999999856e+00 6.151019999999999932e+00 1.344079999999999941e+00 1.583439999999999959e+00 5.218860000000000277e+00 1.127180000000000071e+00 7.020290000000000141e+00 1.868910000000000071e+00 9.497120000000000672e+00 1.032585000000000086e+01 4.928320000000000256e+00 6.241850000000000342e+00 6.616360000000000241e+00
4.329889999999999795e+00 3.124200000000000088e+00 3.011210000000000164e+00 3.738469999999999960e+00 3.248930000000000096e+00 8.126219999999999999e+00 4.949489999999999945e+00 8.415319999999999467e+00 2.573030000000000150e+00 3.780019999999999936e+00 8.229739999999999611e+00 8.241640000000000299e+00 9.283630000000000493e+00 2.714319999999999844e+00 3.247349999999999959e+00 8.730969999999999231e+00 3.420589999999999797e+00 8.141489999999999227e+00 9.814460000000000406e+00 7.887369999999999770e+00 2.149420000000000108e+00 8.907610000000000028e+00 8.174419999999999575e+00 7.940879999999999939e+00 1.887229999999999963e+00 4.532300000000000217e-01 2.915589999999999904e+00 1.272080000000000100e+00 5.352000000000000091e-01 8.241270000000000095e+00 1.902039999999999953e+00 6.055130000000000123e+00 3.189140000000000086e+00 8.094299999999999828e-01 5.761730000000000018e+00 8.764060000000000628e+00 7.186289999999999623e+00 1.055906000000000056e+01 2.838620000000000143e+00 6.575079999999999814e+00 3.995199999999999863e-01 8.384900000000000020e+00 7.085370000000000168e+00 5.601679999999999993e+00 3.088249999999999940e+00 6.240029999999999966e+00 5.449629999999999974e+00 8.102959999999999496e+00 2.403779999999999806e+00 3.145630000000000148e+00 3.126499999999999835e-01 1.367820000000000036e+00 2.862019999999999786e+00 5.597929999999999851e+00 2.372189999999999799e+00 8.001300000000000523e+00 4.235599999999999921e-01 1.469359999999999999e+00 8.039379999999999526e+00 5.597809999999999953e+00 7.911620000000000097e+00 2.730589999999999851e+00 2.906099999999999794e-01 6.525549999999999962e+00 2.811760000000000037e+00 5.689540000000000042e+00 7.535309999999999953e+00 8.353500000000000369e+00 4.284800000000000275e-01 6.405450000000000088e+00 7.827510000000000190e+00 5.764949999999999797e+00 5.219359999999999999e+00 5.340939999999999799e+00 2.200199999999999934e-01 4.030400000000000205e+00 5.613889999999999603e+00 5.264800000000000146e+00 5.052389999999999937e+00 3.146999999999999797e-02 9.059999999999999998e-02 4.156369999999999898e+00 1.743099999999999927e-01 5.391210000000000058e+00 1.033807000000000009e+01 5.223519999999999719e+00 4.418799999999999950e-01 9.416940000000000310e+00 5.384350000000000414e+00 5.515489999999999782e+00 -1.201070000000000082e+00 2.869599999999999929e-01 1.039225000000000065e+01 -9.116900000000000004e-01 1.037306000000000061e+01 5.580460000000000420e+00 3.055109999999999992e+00 4.666870000000000296e+00 3.953619999999999912e+00 2.474330000000000140e+00 4.760100000000000442e+00 8.984360000000000568e+00 3.279970000000000052e+00 9.700400000000000134e+00 3.779380000000000184e+00 2.626020000000000021e+00 9.611409999999999343e+00 9.330040000000000333e+00 7.658199999999999896e+00 4.354960000000000164e+00 6.413120000000000154e+00 7.601130000000000386e+00 4.877909999999999968e+00 9.519830000000000680e+00 8.321939999999999671e+00 8.805720000000000880e+00 6.028929999999999900e+00 7.994780000000000442e+00 9.717530000000000001e+00 9.142440000000000566e+00 3.014310000000000045e+00 1.904330000000000078e+00 2.056719999999999882e+00 2.553430000000000089e+00 1.912260000000000071e+00 7.707629999999999981e+00 3.038829999999999920e+00 7.316169999999999618e+00 2.173360000000000181e+00 2.123079999999999856e+00 7.112049999999999983e+00 7.292670000000000208e+00 8.112930000000000419e+00 3.718469999999999942e+00 4.370110000000000383e+00 8.102639999999999176e+00 1.481999999999999984e+00 7.349649999999999572e+00 9.648490000000000677e+00 5.821419999999999817e+00 2.502339999999999787e+00 7.441799999999999748e+00 7.156830000000000247e+00 7.912569999999999659e+00 2.957660000000000178e+00 1.877780000000000005e+00 4.596689999999999721e+00 1.631210000000000049e+00 1.310410000000000075e+00 1.022194999999999965e+01 2.894810000000000105e+00 7.042300000000000004e+00 4.761199999999999655e+00 1.917219999999999924e+00 6.714559999999999640e+00 1.032324999999999982e+01 7.858939999999999593e+00 9.009000000000000341e-01 4.513139999999999930e+00 7.664629999999999832e+00 1.949969999999999981e+00 1.004757999999999996e+01 7.721870000000000012e+00 6.666409999999999947e+00 4.986699999999999910e+00 9.116849999999999454e+00 7.295259999999999856e+00 1.689199999999999868e-01 4.021090000000000053e+00 3.875879999999999992e+00 1.127590000000000092e+00 2.938670000000000115e+00 4.479980000000000295e+00 6.613710000000000200e+00 3.539759999999999796e+00 9.491970000000000240e+00 1.027809999999999890e+00 2.979880000000000084e+00 9.530559999999999476e+00 6.567650000000000432e+00 3.513200000000000212e-01 1.369469999999999965e+00 3.803819999999999979e+00 -2.594799999999999884e-01 1.771770000000000067e+00 8.911129999999999995e+00 4.227699999999999791e-01 6.638760000000000439e+00 4.645240000000000258e+00 -6.218399999999999483e-01 6.712019999999999875e+00 9.739810000000000301e+00 5.435039999999999871e+00 1.665640000000000009e+00 3.853639999999999954e+00 4.460239999999999760e+00 1.687840000000000007e+00 1.061585000000000001e+01 5.677789999999999893e+00 6.886140000000000150e+00 3.866629999999999789e+00 4.806879999999999598e+00 6.671870000000000189e+00 9.239219999999999544e+00 9.345290000000000319e+00 3.716600000000000126e+00 1.259039999999999937e+00 -1.663800000000000001e-01 4.091009999999999813e+00 6.904770000000000074e+00 1.959899999999999975e-01 9.491270000000000095e+00 1.306189999999999962e+00 9.803000000000000602e-02 9.131930000000000547e+00 6.805719999999999992e+00 6.793580000000000396e+00 4.597540000000000404e+00 1.496080000000000076e+00 5.345690000000000275e+00 4.182339999999999947e+00 6.821410000000000196e+00 6.246109999999999829e+00 9.810100000000000264e+00 1.311790000000000012e+00 5.515310000000000379e+00 9.536070000000000491e+00 6.588689999999999714e+00 2.377199999999999869e-01 4.054560000000000386e+00 4.381029999999999980e+00 -2.547099999999999920e-01 4.362779999999999880e+00 9.721450000000000813e+00 -1.074999999999999914e-02 9.175679999999999836e+00 4.128980000000000317e+00 1.386400000000000132e-01 9.459459999999999980e+00 9.468339999999999534e+00 5.478349999999999831e+00 4.471799999999999997e+00 4.080000000000000071e+00 5.141490000000000116e+00 4.032879999999999576e+00 9.467159999999999798e+00 5.884470000000000312e+00 9.773389999999999134e+00 4.189569999999999794e+00 5.415110000000000312e+00 9.638109999999999289e+00 9.685040000000000759e+00 1.190809999999999924e+00 1.574850000000000083e+00 1.104929999999999968e+00 5.469300000000000272e-01 1.198520000000000030e+00 6.218009999999999593e+00 1.510459999999999914e+00 4.639009999999999856e+00 1.502340000000000009e+00 -4.576999999999999957e-01 6.648310000000000386e+00 7.078509999999999636e+00 8.280210000000000292e+00 1.525139999999999940e+00 1.915270000000000028e+00 5.405630000000000379e+00 1.350459999999999994e+00 6.564630000000000187e+00 5.914850000000000385e+00 7.294990000000000308e+00 1.248490000000000100e+00 4.999699999999999811e+00 6.587799999999999656e+00 6.820179999999999687e+00