-9.274572569700000031e+02
-9.328534090000000560e+02
-9.337444777399999793e+02
-9.269074613999999883e+02
-9.224168889300000274e+02
-9.300761938099999497e+02
-9.225678760399999874e+02
-9.361361602099999573e+02
-9.392848110500000303e+02
-9.284178937000000360e+02
-9.276660346099999970e+02
-9.349073066600000175e+02
-9.178893954000000122e+02
-9.368731513899999754e+02
-9.129402005499999859e+02
-9.293946021399999609e+02
-9.284027115699999513e+02
-9.125564855100000159e+02
-9.219707445200000393e+02
-9.301395914500000117e+02
-9.289787477099999933e+02
-9.316808113399999911e+02
-9.271612386199999492e+02
-9.266581140099999629e+02
-9.319066877200000363e+02
-9.219995451600000251e+02
-9.330532953199999611e+02
-9.191940320400000246e+02
-9.249828556899999512e+02
-9.281623659000000544e+02
-9.241388411799999858e+02
-9.326150025199999618e+02
-9.375326880100000153e+02
-9.372388699099999485e+02
-9.348367674500000248e+02
-9.291278714200000195e+02
-9.325337457000000541e+02
-9.311638232100000323e+02
-9.201883609300000444e+02
-9.322004045899999483e+02
-9.262018432500000245e+02
-9.286902252099999941e+02
-9.314639621799999532e+02
-9.194118913800000428e+02
-9.248853784299999461e+02
-9.213833457700000054e+02
-9.306224629600000071e+02
-9.337967691600000535e+02
-9.150754987899999833e+02
-9.211147546099999772e+02
