2.695022999999999946e+00 -6.462940000000000351e-01 -2.250139999999999918e-01 -1.002054999999999918e+00 1.750677999999999956e+00 -2.973901999999999823e+00 -9.707820000000000338e-01 -1.586918999999999969e+00 -7.268970000000000153e-01 -3.474490999999999996e+00 -2.195953999999999962e+00 -2.244749999999999801e+00 7.475920000000000343e-01 7.022610000000000241e-01 1.100904000000000105e+00 -2.197222000000000008e+00 -1.816454000000000013e+00 1.853591999999999906e+00 2.087616000000000138e+00 -1.887623000000000051e+00 -1.129072000000000076e+00 1.279852999999999907e+00 -1.941791999999999963e+00 6.439999999999999891e-02 -1.805463000000000040e+00 -3.433482999999999841e+00 1.805536999999999948e+00 -3.372629999999999795e-01 -1.226955000000000018e+00 -3.525009999999999977e+00 3.044300000000000131e-02 5.369121999999999950e+00 2.186507000000000200e+00 1.895699000000000023e+00 3.836010000000000253e-01 2.068700000000000053e-02 -2.435934000000000044e+00 1.638017000000000056e+00 -2.082126000000000143e+00 2.321620000000000072e-01 -2.329600000000000004e-01 -1.350559000000000065e+00 4.935470000000000135e-01 7.253530000000000255e-01 1.591552999999999995e+00 -5.537671999999999706e+00 4.219092999999999982e+00 -2.459013000000000115e+00 6.087879999999999958e-01 2.429050000000000153e+00 -1.940139999999999976e+00 1.693068000000000017e+00 -8.909489999999999910e-01 3.131769999999999832e-01 1.781787999999999927e+00 -8.384239999999999471e-01 1.449608999999999925e+00 1.659599999999999964e-02 -1.554046000000000038e+00 5.061800000000000327e-02 2.065027999999999864e+00 7.470799999999999663e-02 -6.358620000000000383e-01 6.758269999999999555e-01 4.118479999999999919e-01 9.120869999999999811e-01 -1.093301999999999996e+00 3.293050000000000144e-01 -1.864764000000000088e+00 -1.953205000000000080e+00 -1.268423000000000078e+00 2.429350000000000120e-01 -2.909733000000000125e+00 4.484700000000000131e+00 -2.510444000000000120e+00 -5.372329999999999606e-01 2.137772000000000006e+00 1.347080000000000055e+00 -8.969129999999999603e-01 -1.378905000000000047e+00 1.265781000000000045e+00 -5.410800000000000332e-02 -1.504880000000000106e-01 -2.590695000000000192e+00 -1.331002999999999936e+00 3.641252000000000155e+00 1.844665999999999917e+00 -1.251508999999999983e+00 2.025310000000000166e+00 1.363323000000000063e+00 1.397240999999999955e+00 9.006319999999999881e-01 -2.166136999999999979e+00 5.737498000000000431e+00 7.326089999999999547e-01 2.255409000000000219e+00 -1.045325999999999977e+00 -1.125911000000000106e+00 -3.707514000000000198e+00 4.105759999999999965e-01 -4.308391000000000304e+00 4.080309999999999770e-01 -2.504694999999999894e+00 3.172217999999999982e+00 2.141080000000000094e+00 -1.972712000000000021e+00 1.049892999999999965e+00 2.309349000000000096e+00 -1.879391000000000034e+00 -1.180409999999999959e+00 6.260270000000000001e-01 5.796472999999999764e+00 -6.231664000000000314e+00 1.488228000000000106e+00 -1.423308999999999935e+00 -2.015309999999999879e-01 -1.804400999999999922e+00 7.930709999999999704e-01 -1.687467999999999968e+00 8.868800000000000017e-01 2.313099999999999878e-02 8.414559999999999818e-01 -1.895454999999999890e+00 1.586880999999999986e+00 -4.432450000000000001e-01 3.589627999999999819e+00 1.234791999999999890e+00 -1.400536000000000003e+00 6.507880000000000331e-01 4.953640000000000265e-01 -6.505619999999999736e-01 1.638822999999999919e+00 -2.679966999999999988e+00 -1.043913000000000091e+00 -9.929459999999999953e-01 -1.280618999999999952e+00 4.873410000000000242e-01 7.312849999999999628e-01 2.139902000000000193e+00 -3.093379000000000101e+00 -1.484353999999999951e+00 -8.616880000000000095e-01 1.186363999999999974e+00 2.450539999999999941e-01 4.440649999999999875e-01 -1.223845999999999989e+00 -5.576140000000000541e-01 -1.357900000000000079e-02 3.256080000000000085e-01 6.756969999999999921e-01 -2.229925000000000157e+00 1.080770000000000064e-01 -8.177969999999999962e-01 7.804980000000000251e-01 -2.109000000000000197e-03 1.933389999999999942e+00 4.253390000000000226e-01 -1.059987000000000013e+00 1.469408000000000047e+00 -2.225381000000000054e+00 1.263085000000000013e+00 1.378168999999999977e+00 3.918889999999999874e-01 -4.647370000000000112e-01 8.186830000000000496e-01 5.109719999999999818e-01 -3.594430000000000125e-01 1.610783999999999994e+00 2.543509999999999938e+00 1.343164000000000025e+00 -2.828809999999999936e-01 -2.780768999999999824e+00 -1.490885000000000016e+00 1.229399999999999937e-01 3.157341999999999871e+00 1.230885000000000007e+00 1.266619999999999968e-01 -2.181105000000000071e+00 1.677949999999999997e-01 -2.923659999999999926e+00 2.266877000000000031e+00 1.086065000000000058e+00 1.455300999999999956e+00 -1.321782999999999930e+00 3.785419999999999896e-01 -1.796632000000000007e+00 1.109501000000000071e+00 -8.372799999999999687e-02 1.140649999999999997e-01 2.303329000000000182e+00 1.201049000000000033e+00 -3.853710000000000191e-01 1.297414999999999985e+00 1.115299999999999972e-02 -3.542300000000000310e-02 -8.918479999999999741e-01 3.278400000000000064e-02 -2.119431000000000065e+00 -2.224440000000000028e-01 -1.007457000000000047e+00 5.601089999999999680e-01 -2.810893999999999782e+00 5.322879999999999834e-01 -2.783558999999999894e+00 9.853030000000000399e-01 -7.572200000000000042e-01 -1.722906000000000049e+00 9.816939999999999555e-01 -8.127750000000000252e-01 1.756942999999999921e+00 -1.202496000000000009e+00 -2.572214999999999918e+00 -1.916895999999999933e+00 3.896647999999999890e+00 2.064493999999999829e+00 -1.441872999999999960e+00 -2.135362999999999900e+00 1.660929000000000100e+00 5.470279999999999587e-01 -1.390025999999999984e+00 1.245265999999999984e+00 1.740869999999999918e+00 3.528640000000000110e-01 -1.257077999999999918e+00 1.874427000000000065e+00 -5.090219999999999745e-01 1.407809999999999895e-01 9.323679999999999746e-01 -1.273390000000000022e+00 -7.920850000000000390e-01 1.095629999999999937e-01 2.274487000000000148e+00 2.180449999999999999e+00 -1.009956000000000076e+00 1.121884000000000103e+00 -2.346040000000000070e-01 -2.351685999999999943e+00 2.086338000000000026e+00 -3.554288000000000114e+00 -2.966679999999999873e-01 -5.626179999999999515e-01 1.948836999999999930e+00 -3.568740000000000245e-01 -1.251603000000000021e+00 2.673251000000000044e+00 -2.499274999999999913e+00 2.683490000000000042e-01 -1.276137000000000077e+00 8.488139999999999574e-01 -2.415327000000000002e+00 -1.450553999999999899e+00 -7.240900000000000114e-01 7.250020000000000353e-01 1.239776999999999907e+00 5.230620000000000269e-01 1.587714000000000070e+00 2.025554000000000077e+00 3.717779000000000167e+00 3.252950000000000008e-01 -1.706285999999999969e+00 8.527599999999999625e-01 -1.342872000000000066e+00 1.184290000000000065e-01 1.526704000000000061e+00 3.756090000000000262e-01 -2.975960000000000272e-01 -6.053110000000000435e-01 5.181240000000000290e-01 4.613789999999999836e-01 1.066160999999999914e+00 1.275390000000000135e-01 -3.006019999999999803e-01 4.591970000000000218e-01 1.422811999999999966e+00 1.439335000000000031e+00 1.798667999999999934e+00 2.610680000000000223e-01 -5.126199999999999646e-01 -2.150360000000000049e-01 -2.633860000000000090e-01 6.136699999999999794e-02 7.494020000000000126e-01
-1.039906999999999915e+00 -1.821533999999999986e+00 7.972909999999999719e-01 -6.693620000000000125e-01 -2.184428000000000036e+00 -2.373587999999999809e+00 1.993346999999999980e+00 5.870769999999999600e-01 -1.364031999999999911e+00 1.458830000000000071e+00 -8.318449999999999456e-01 2.010149000000000186e+00 -1.914198000000000066e+00 -8.600199999999999512e-02 -3.601700000000000040e-02 4.559111999999999831e+00 -4.542661999999999978e+00 -2.465467999999999993e+00 2.096188999999999858e+00 -4.256369999999999876e-01 2.689951999999999899e+00 9.886150000000000215e-01 -2.800549999999999984e-01 -2.682865000000000055e+00 -2.134399000000000157e+00 -1.634212999999999916e+00 8.438890000000000002e-01 1.175248999999999988e+00 7.811700000000000310e-01 9.372030000000000083e-01 -1.975530000000000064e-01 2.721789999999999932e+00 3.320542000000000105e+00 -1.250938000000000105e+00 6.250890000000000057e-01 -3.244310000000000027e+00 -4.232369999999999743e-01 -7.478209999999999580e-01 2.290659999999999918e-01 4.826380000000000114e-01 -1.701197000000000070e+00 -4.845369999999999955e-01 -4.837890000000000246e-01 1.983961000000000086e+00 7.970230000000000370e-01 -1.936679000000000039e+00 1.630924999999999958e+00 -1.695039999999999880e-01 1.189600000000000032e-02 1.914115999999999929e+00 5.196499999999999453e-01 -8.873450000000000504e-01 7.935929999999999929e-01 1.225116000000000094e+00 1.417689999999999895e+00 -5.291390000000000260e-01 -5.937489999999999712e-01 -1.210161000000000042e+00 1.012021999999999977e+00 1.379180000000000128e-01 7.661419999999999897e-01 -4.169209999999999861e-01 3.894870000000000276e-01 -9.040150000000000130e-01 -4.847839999999999927e-01 4.329520000000000035e-01 -1.517333999999999961e+00 -1.893686999999999898e+00 -1.632509999999999906e+00 1.499055999999999944e+00 2.263736999999999888e+00 3.464992000000000072e+00 8.638430000000000275e-01 3.495540000000000092e+00 2.831812000000000218e+00 3.002990000000000048e+00 4.607408999999999644e+00 -2.963637999999999995e+00 -5.292010000000000325e-01 -3.508461000000000052e+00 -3.183899999999999925e-02 1.582035000000000080e+00 5.841610000000000413e-01 -6.103319999999999856e-01 1.659607000000000054e+00 1.608584000000000014e+00 -8.167750000000000288e-01 -1.285408000000000106e+00 1.591827000000000103e+00 7.976959999999999607e-01 -1.354624000000000050e+00 -8.732119999999999882e-01 5.200770000000000115e-01 -6.195739999999999581e-01 -3.747802000000000078e+00 -6.440249999999999586e-01 3.728210000000000135e-01 -4.322719999999999896e-01 4.772080000000000211e-01 1.485435999999999979e+00 -1.081801000000000013e+00 2.152032000000000167e+00 2.853629999999999778e-01 4.006290000000000129e-01 1.545250999999999930e+00 -9.514780000000000459e-01 2.291870999999999992e+00 -3.615970000000000018e-01 2.922921000000000102e+00 2.158289999999999931e-01 2.021246999999999794e+00 -4.440455000000000041e+00 4.485630999999999702e+00 2.625068000000000179e+00 -1.434466999999999937e+00 1.576365000000000016e+00 1.029165000000000108e+00 -2.343606999999999996e+00 4.225664000000000087e+00 1.554189000000000043e+00 2.965900000000000203e-01 1.093150999999999984e+00 -8.200749999999999984e-01 1.941176000000000013e+00 9.106060000000000265e-01 -1.082950000000000024e-01 -2.952849000000000057e+00 -1.551352000000000064e+00 -2.060980999999999952e+00 -1.553163000000000071e+00 -4.483949999999999880e-01 -1.398854000000000042e+00 3.108069999999999999e-01 1.595650000000000013e+00 -1.326699999999999990e+00 -1.106599999999999945e-02 -5.259779999999999456e-01 1.599682000000000048e+00 -2.752089999999999814e-01 -8.692220000000000502e-01 -4.384799999999999809e-02 -3.356000000000000094e-01 -1.010132999999999948e+00 5.352350000000000163e-01 1.701764000000000054e+00 -2.478420000000000067e-01 1.745149999999999979e+00 2.840710000000000179e-01 8.552509999999999835e-01 -6.731679999999999886e-01 2.028979999999999950e-01 -1.486934999999999896e+00 1.053733999999999948e+00 1.609556999999999904e+00 6.040440000000000254e-01 1.887947000000000042e+00 -3.285500000000000226e-02 -5.199190000000000200e-01 -1.087107000000000046e+00 -1.440269999999999884e-01 -1.611242000000000063e+00 -1.272699999999999942e+00 4.933930000000000260e-01 -1.154004000000000030e+00 8.921510000000000273e-01 -1.044634999999999980e+00 6.838720000000000354e-01 -5.723599999999999799e-01 -3.171800000000000314e-02 -4.449730000000000074e-01 4.807600000000000068e-02 -4.928270000000000151e-01 -2.089671000000000056e+00 8.841790000000000482e-01 -1.685683999999999960e+00 -4.008500000000000257e-02 2.073010000000000130e-01 1.174114000000000102e+00 5.190730000000000066e-01 -1.293263000000000051e+00 -1.176303000000000099e+00 -2.414242000000000221e+00 -1.059933999999999932e+00 -2.386076000000000086e+00 2.739590000000000081e-01 -8.035619999999999985e-01 -1.734204000000000079e+00 4.483829999999999760e-01 -8.542419999999999458e-01 1.414600000000000080e+00 1.186944999999999917e+00 -2.074489999999999945e-01 1.546465999999999896e+00 -1.173551000000000011e+00 1.763053999999999899e+00 -1.321370000000000045e-01 1.314065999999999956e+00 -7.793520000000000447e-01 -1.376650000000000096e-01 -6.320940000000000447e-01 8.107300000000000617e-02 4.429660000000000264e-01 1.132179000000000046e+00 -1.429378000000000037e+00 2.984479999999999911e-01 -4.362090000000000134e-01 -1.626389000000000085e+00 7.159510000000000041e-01 3.384659999999999891e-01 1.468998999999999944e+00 2.064843999999999902e+00 -4.782359999999999944e-01 7.358639999999999626e-01 3.575010000000000132e-01 -2.301038000000000139e+00 1.192061999999999955e+00 1.173551999999999929e+00 -1.061805000000000110e+00 1.054745000000000044e+00 9.946099999999999386e-02 -7.150399999999999812e-02 1.067369000000000012e+00 1.341323999999999961e+00 7.147700000000000164e-01 -5.611150000000000304e-01 -2.082825999999999844e+00 -1.150010000000000060e-01 -1.253543000000000074e+00 -6.317380000000000217e-01 -1.587469000000000019e+00 -2.940354999999999830e+00 3.531259999999999954e-01 1.659509999999999874e-01 -8.751640000000000530e-01 2.630886999999999976e+00 -2.837230000000000030e-01 -2.398576999999999959e+00 -5.972309999999999564e-01 -2.510447999999999791e+00 -1.714400000000000091e-01 -1.250496000000000052e+00 -4.642020000000000035e-01 -2.194490000000000052e-01 -8.577449999999999797e-01 -1.561480999999999897e+00 2.041431999999999913e+00 -8.592929999999999735e-01 1.820605999999999947e+00 1.256625000000000103e+00 -1.541238000000000108e+00 4.632300000000000306e-02 1.226385000000000058e+00 -1.203211000000000030e+00 -9.020920000000000050e-01 4.100030000000000063e-01 3.929779999999999940e-01 2.974641000000000091e+00 -2.215969999999999884e-01 5.535029999999999673e-01 8.913729999999999709e-01 -7.358890000000000153e-01 -1.160260000000000069e+00 -1.121064999999999978e+00 -4.885390000000000010e-01 -4.614119999999999888e-01 1.320203000000000015e+00 -2.263234999999999886e+00 2.223961000000000077e+00 -1.562319000000000013e+00 -2.168110000000000037e-01 9.087309999999999555e-01 -2.772950000000000137e-01 -4.824570000000000247e-01 -4.061960000000000015e-01 -2.572579999999999867e-01 -5.682819999999999538e-01 5.263500000000000123e-02 8.001460000000000239e-01 -1.190344000000000069e+00 -5.036880000000000246e-01 -6.523940000000000294e-01 -2.020799999999999930e+00
9.059490000000000043e-01 9.391580000000000483e-01 1.401462999999999903e+00 -2.242002999999999968e+00 1.181813999999999920e+00 -1.972126000000000046e+00 -1.317893999999999899e+00 -1.718393000000000059e+00 -1.235220999999999902e+00 1.051579000000000041e+00 1.064842000000000066e+00 4.360840000000000272e-01 -9.667620000000000102e-01 -2.352955000000000130e+00 8.352020000000000000e-01 1.571080000000000032e+00 4.804820000000000202e-01 1.822856999999999950e+00 3.183659999999999823e-01 -6.332699999999999996e-01 -1.200253000000000014e+00 1.926836999999999911e+00 -2.024910000000000043e-01 -2.009717000000000198e+00 -2.360021000000000146e+00 2.252717000000000080e+00 8.068950000000000289e-01 -7.877779999999999783e-01 2.825639999999999818e-01 -3.091178999999999899e+00 6.983329999999999815e-01 4.051300000000000040e-02 -5.211780000000000301e-01 -1.088325999999999905e+00 3.070260000000000211e-01 -1.097973000000000088e+00 1.376238999999999990e+00 1.310291000000000095e+00 -3.041460000000000274e-01 -1.117350999999999983e+00 1.609339999999999993e+00 -5.363350000000000062e-01 -2.324440000000000117e-01 -2.047406000000000059e+00 -3.936149999999999927e-01 2.069926000000000155e+00 -8.783060000000000311e-01 -4.486620000000000053e-01 5.321000000000000209e-03 -2.293680999999999859e+00 1.846978999999999926e+00 1.072011000000000047e+00 -1.334454000000000029e+00 -1.165998000000000090e+00 -5.033336000000000254e+00 9.257729999999999571e-01 1.320697000000000010e+00 3.597290000000000210e-01 1.014051999999999953e+00 1.464180000000000037e+00 1.248601000000000072e+00 -3.966109999999999913e-01 1.674363000000000046e+00 1.361220000000000097e+00 1.192259999999999986e-01 -9.574270000000000280e-01 8.941249999999999476e-01 -1.993790000000000007e-01 -5.088049999999999518e-01 1.602284999999999959e+00 -2.130770000000000053e+00 3.840910000000000157e-01 3.000860000000000194e-01 -4.610409999999999786e-01 2.127397000000000205e+00 -9.265189999999999815e-01 -1.685146999999999951e+00 -1.425869999999999971e+00 -2.762900000000000078e-02 -3.989139999999999908e-01 3.757030000000000092e-01 -2.242433000000000121e+00 1.231924999999999937e+00 -7.014499999999999902e-02 -1.271095000000000086e+00 -1.319449000000000094e+00 -9.146300000000000263e-02 1.058564999999999978e+00 -1.360130999999999979e+00 7.172840000000000327e-01 1.491546000000000038e+00 2.378044000000000047e+00 7.579200000000000381e-01 1.268914000000000097e+00 2.101977999999999902e+00 1.424533999999999967e+00 -5.956179999999999808e-01 7.362889999999999713e-01 -9.938280000000000447e-01 1.370189000000000101e+00 3.185600000000000098e-01 -8.981599999999999306e-02 1.359126000000000056e+00 -1.864159999999999984e-01 1.772221999999999964e+00 1.376697999999999977e+00 -1.853439999999999976e+00 -2.768174999999999830e+00 -8.845380000000000464e-01 1.425869000000000053e+00 5.852289999999999992e-01 -1.771066999999999947e+00 7.437900000000000067e-02 -8.449440000000000284e-01 -2.363501999999999992e+00 9.010550000000000503e-01 -1.296763000000000110e+00 3.063850000000000184e-01 2.882199999999999762e-01 8.188029999999999475e-01 7.299459999999999837e-01 2.941960000000000131e-01 5.106880000000000308e-01 -2.844899999999999984e+00 7.391990000000000505e-01 -2.718650000000000233e-01 1.038566000000000100e+00 -8.712170000000000192e-01 2.173470000000000124e-01 -6.530949999999999811e-01 9.107640000000000180e-01 -3.651579999999999826e-01 -2.189409999999999967e-01 6.733390000000000208e-01 1.479749999999999954e-01 -2.816019999999999968e+00 -9.274350000000000094e-01 -6.279620000000000202e-01 4.904370000000000118e-01 -1.613766999999999951e+00 -2.307929999999999982e-01 1.481004999999999905e+00 4.333719999999999795e-01 1.733295000000000030e+00 1.987150000000000027e-01 -4.414170000000000038e-01 1.843267999999999907e+00 1.674620999999999915e+00 -1.647059000000000051e+00 -2.363901999999999948e+00 2.639739999999999864e-01 -1.190579000000000054e+00 1.189479999999999982e-01 5.166629999999999834e-01 -1.282385000000000108e+00 -1.560268999999999906e+00 -1.569739999999999913e+00 1.351356999999999919e+00 -4.442309999999999870e-01 -1.442592000000000096e+00 1.294369999999999965e-01 -2.443510000000000126e-01 -1.962822000000000067e+00 -9.695700000000000429e-01 -1.029711000000000043e+00 -4.316070000000000184e-01 -3.421509999999999829e-01 1.996963000000000044e+00 5.004589000000000176e+00 2.504544000000000104e+00 8.790040000000000076e-01 -4.127750000000000030e-01 9.318999999999999506e-02 1.498850000000000016e+00 -2.380904000000000131e+00 -1.583312999999999970e+00 7.334159999999999568e-01 6.419540000000000246e-01 -8.685580000000000522e-01 -1.344395000000000007e+00 -1.903750999999999971e+00 -1.674838999999999967e+00 1.366217000000000015e+00 -1.963905999999999930e+00 7.761209999999999498e-01 7.069299999999999473e-01 -6.086000000000000264e-03 -2.072360000000000035e-01 1.230569999999999942e+00 6.795949999999999491e-01 1.445019999999999916e-01 4.730340000000000100e-01 -1.075935000000000086e+00 -1.844694999999999974e+00 2.090760000000000118e-01 1.006687000000000110e+00 1.464183999999999930e+00 7.790219999999999922e-01 7.247010000000000396e-01 7.873219999999999663e-01 -1.580165000000000042e+00 6.064370000000000038e-01 -2.841921999999999837e+00 2.777784000000000031e+00 8.479560000000000430e-01 2.282338999999999896e+00 -3.650390000000000024e-01 1.643650000000000111e-01 1.865519999999999956e-01 -1.668158000000000030e+00 3.079724999999999824e+00 2.009198000000000039e+00 -1.766629999999999923e+00 -1.539061999999999930e+00 -1.503767000000000076e+00 2.249049999999999938e-01 -1.915064000000000100e+00 -8.152220000000000022e-01 -4.715699999999999892e-01 1.054140000000000077e+00 -2.880278000000000116e+00 2.876980000000000093e-01 8.258060000000000400e-01 4.123820000000000263e-01 -4.693000000000000123e-03 1.279454000000000091e+00 6.213189999999999547e-01 -1.488272000000000039e+00 -1.855323000000000055e+00 -4.402199999999999863e-02 -6.247500000000000275e-02 8.342700000000000116e-02 2.345943000000000112e+00 3.035490000000000133e-01 -2.063649999999999929e-01 1.805369999999999919e+00 9.487309999999999910e-01 2.255000000000000060e-03 -2.140259999999999940e-01 -7.079520000000000257e-01 6.061699999999999866e-01 -1.053865000000000052e+00 -5.204109999999999570e-01 1.482650000000000079e-01 6.121980000000000199e-01 4.777850000000000152e-01 3.528549999999999742e-01 -1.195221000000000089e+00 1.742930000000000090e+00 1.553869999999999973e-01 1.844745999999999997e+00 -8.491279999999999939e-01 2.404380000000000128e-01 1.444652999999999965e+00 1.285938000000000025e+00 -1.493835000000000024e+00 3.701070000000000193e-01 -3.561619999999999786e-01 6.496199999999999752e-01 -4.796239999999999948e-01 -1.836893000000000109e+00 1.415165999999999924e+00 2.878280999999999867e+00 -5.791199999999999681e-01 1.367237000000000036e+00 -4.168529999999999736e-01 -6.603299999999999448e-02 4.460790000000000033e-01 4.241170000000000218e-01 -1.930870000000000086e+00 4.256929999999999881e-01 1.292235999999999940e+00 5.635890000000000066e-01 -5.038460000000000161e-01 -1.445448000000000066e+00 1.334097000000000088e+00 -1.474944999999999951e+00 -1.397049999999999959e-01 7.250090000000000146e-01 7.047909999999999453e-01 1.313429999999999875e-01 7.132900000000000351e-02
5.333489999999999620e-01 3.620839999999999836e+00 -3.371600000000000291e-02 -2.161888999999999950e+00 7.483480000000000132e-01 3.825327000000000144e+00 4.373029999999999973e-01 1.182172999999999918e+00 1.082365999999999939e+00 -1.838119999999999976e+00 -2.833782999999999941e+00 -1.525428000000000006e+00 1.212710000000000038e-01 2.860170000000000212e-01 -1.547601999999999922e+00 2.149001999999999857e+00 2.217947000000000113e+00 1.480698000000000070e+00 -2.509279999999999844e-01 8.316379999999999884e-01 -3.285533000000000037e+00 -1.082935999999999899e+00 1.292600000000000138e-01 -1.440096000000000043e+00 -4.880999999999999922e-03 -3.591440000000000188e-01 8.300250000000000128e-01 6.614790000000000392e-01 1.880090999999999957e+00 3.618520000000000070e-01 -1.983469999999999955e-01 -2.607579999999999898e-01 -5.297566999999999915e+00 1.673364000000000074e+00 2.572910999999999948e+00 5.695839999999999792e-01 -5.100999999999999979e-02 -2.406287999999999982e+00 -2.793881999999999977e+00 -2.376910000000000134e-01 -4.008383000000000251e+00 -5.672831000000000401e+00 1.665870000000000128e-01 -2.716410000000000213e-01 -1.732582000000000066e+00 -4.159229999999999983e+00 2.691216999999999970e+00 -9.119390000000000551e-01 -8.544650000000000301e-01 1.144678000000000084e+00 -9.647580000000000044e-01 -6.387850000000000472e-01 -2.812311999999999923e+00 -6.341780000000000195e-01 1.421297999999999950e+00 -5.702660000000000506e-01 1.210480000000000000e+00 1.323228000000000071e+00 2.705699999999999772e-01 3.855018999999999973e+00 -1.417570999999999914e+00 4.411169999999999813e-01 3.964210000000000012e+00 -4.863199999999999745e-01 -3.059769999999999990e-01 -9.102379999999999916e-01 5.180660000000000265e-01 1.791473000000000093e+00 -1.321450000000000125e-01 8.002789999999999626e-01 -4.784817999999999572e+00 -3.944600000000000189e-02 -3.958459999999999757e-01 -1.143083000000000071e+00 1.126041999999999987e+00 1.392241000000000062e+00 -9.561560000000000059e-01 2.083706999999999976e+00 2.431359999999999910e-01 2.457540000000000002e-01 1.149423000000000084e+00 -3.697350999999999832e+00 1.374579999999999913e+00 1.379822000000000104e+00 3.964309999999999778e-01 1.070438000000000001e+00 9.653049999999999686e-01 -1.346713999999999967e+00 -9.129960000000000298e-01 -2.349847000000000019e+00 1.168919999999999959e+00 3.012279999999999958e-01 4.678810000000000358e+00 6.589120000000000532e-01 -1.386322000000000054e+00 -5.037660000000000471e-01 -1.255743000000000054e+00 -5.096349999999999492e-01 2.205951000000000217e+00 1.327080999999999955e+00 -6.152339999999999476e-01 1.884681000000000051e+00 -7.560170000000000501e-01 -1.675677000000000083e+00 -2.115069999999999784e+00 -1.396136000000000044e+00 -1.695060999999999929e+00 -2.002851000000000159e+00 8.043160000000000309e-01 -8.896269999999999456e-01 -5.582869999999999777e-01 3.232254000000000183e+00 -2.913009000000000182e+00 1.368093999999999921e+00 4.485390000000000210e-01 -1.009511000000000047e+00 -9.333580000000000210e-01 -2.183594999999999953e+00 -2.590419999999999945e+00 -5.973996999999999780e+00 1.732221999999999928e+00 5.014830000000000121e-01 2.105605999999999867e+00 1.971159000000000106e+00 -5.535219999999999585e-01 -4.027899999999999814e-01 -7.987309999999999688e-01 4.758729999999999905e-01 -4.630610000000000004e-01 -1.197270000000000056e+00 1.576615000000000100e+00 -8.095219999999999638e-01 -4.004619999999999846e-01 -3.794499999999999956e-02 2.879842000000000013e+00 -1.247473000000000054e+00 -1.591490000000000127e-01 -9.712979999999999947e-01 -3.126140000000000030e-01 -3.826780000000000181e-01 2.065675999999999846e+00 3.016246000000000205e+00 9.985349999999999504e-01 1.493746000000000018e+00 -2.967991000000000046e+00 1.428954999999999975e+00 -3.659749999999999948e-01 1.288505999999999929e+00 -2.593494000000000188e+00 -2.016855000000000064e+00 1.506771000000000083e+00 -1.340208000000000066e+00 5.229369999999999852e-01 -6.471069999999999878e-01 1.444370000000000098e-01 -7.596190000000000442e-01 -1.383869999999999933e+00 2.517042000000000002e+00 1.173645000000000049e+00 4.823191999999999702e+00 -5.953399999999999664e-02 2.901829999999999909e+00 9.753939999999999833e-01 -1.902201000000000031e+00 5.586550000000000127e-01 -1.535619999999999985e+00 -8.045660000000000034e-01 -1.138257999999999992e+00 -1.330951999999999913e+00 6.513609999999999678e-01 -6.893799999999999928e-02 1.715850000000000097e+00 6.873930000000000318e-01 1.279516000000000098e+00 -6.669439999999999813e-01 -1.050135999999999958e+00 1.359463000000000088e+00 1.378247000000000000e+00 1.959789999999999865e-01 1.143701000000000079e+00 -1.419588000000000072e+00 -6.429989999999999872e-01 8.726460000000000328e-01 -2.143238999999999894e+00 -3.857749999999999790e-01 -8.637590000000000545e-01 5.709469999999999823e-01 2.148069999999999979e-01 8.386789999999999523e-01 1.698334000000000010e+00 5.352259999999999796e-01 2.226782000000000039e+00 1.858889000000000014e+00 9.642300000000000315e-01 5.643709999999999560e-01 -4.360299999999999732e-01 1.663070000000000104e-01 7.614360000000000017e-01 7.007590000000000208e-01 -1.185422999999999893e+00 8.957869999999999999e-01 2.639889999999999737e-01 1.366967000000000043e+00 -9.612490000000000201e-01 -6.183520000000000127e-01 -1.275697999999999999e+00 9.047309999999999519e-01 -1.348859999999999948e+00 1.877785999999999955e+00 1.247964000000000073e+00 2.028831999999999969e+00 2.752136000000000138e+00 -1.319452999999999987e+00 1.221219999999999944e-01 -3.544860000000000233e-01 2.704320000000000057e-01 4.649809999999999777e-01 8.828430000000000444e-01 1.265920000000000101e-01 -6.813139999999999752e-01 2.613792000000000115e+00 -8.767249999999999766e-01 1.511400000000000070e-02 -1.539104000000000028e+00 -9.795199999999999740e-02 -1.949680000000000024e-01 -5.092349999999999932e-01 7.022009999999999641e-01 7.449200000000000266e-02 -2.062933000000000128e+00 -2.762388000000000066e+00 1.188000000000000037e-03 1.671809000000000101e+00 6.517699999999999605e-01 -1.903699000000000030e+00 -4.597699999999999704e-02 5.202729999999999855e-01 3.699459999999999971e-01 2.892899999999999916e-01 1.424093000000000053e+00 -1.269756000000000107e+00 2.631101000000000134e+00 -1.925624000000000002e+00 -1.126069999999999904e+00 2.360500000000000098e-02 5.890600000000000280e-01 -5.915820000000000523e-01 2.242096999999999785e+00 1.465915999999999997e+00 -1.517827999999999955e+00 3.018555000000000099e+00 -3.260139999999999816e+00 1.524590000000000112e-01 1.012259999999999965e-01 -1.666951999999999989e+00 -1.388290999999999942e+00 2.195870999999999906e+00 4.333150000000000057e-01 3.123889999999999723e-01 2.013129000000000168e+00 1.619626999999999928e+00 -1.268512000000000084e+00 -1.900411999999999990e+00 -1.942838000000000065e+00 4.948919999999999986e-01 1.613229999999999942e-01 -4.353890000000000260e-01 8.730120000000000102e-01 -1.169260000000000022e-01 7.348729999999999984e-01 1.449310000000000043e-01 4.436880000000000268e-01 1.772575000000000012e+00 3.119721000000000188e+00 -3.850853999999999999e+00 -3.933324999999999960e+00 1.816653000000000073e+00 4.129900000000000237e-02 -1.138311999999999991e+00 -1.575930000000000109e-01 -5.216809999999999503e-01 -5.895930000000000337e-01