9.972080000000000055e+00 2.487470000000000070e+00 2.533380000000000187e+00 1.024732999999999983e+01 2.668000000000000149e+00 8.139920000000000044e+00 1.655300000000000105e-01 7.428869999999999862e+00 2.438639999999999919e+00 8.670000000000000623e-03 8.297639999999999461e+00 7.822770000000000223e+00 5.165239999999999831e+00 2.537539999999999907e+00 2.735599999999999810e+00 5.126409999999999911e+00 2.481030000000000069e+00 7.711179999999999701e+00 5.223220000000000418e+00 8.100960000000000605e+00 2.670339999999999936e+00 5.238080000000000069e+00 8.203419999999999490e+00 8.433559999999999945e+00 2.912329999999999863e+00 1.017792000000000030e+01 2.990520000000000067e+00 2.653399999999999981e+00 3.541099999999999803e-01 8.011400000000000077e+00 2.556810000000000027e+00 4.822709999999999830e+00 2.630990000000000162e+00 2.777470000000000105e+00 5.091239999999999988e+00 7.883600000000000385e+00 7.832270000000000287e+00 1.013941999999999943e+01 2.982229999999999936e+00 7.959410000000000096e+00 2.850400000000000156e-01 7.915079999999999671e+00 7.452340000000000408e+00 5.485000000000000320e+00 2.715440000000000076e+00 7.468469999999999942e+00 5.274259999999999948e+00 7.849840000000000373e+00 2.099779999999999980e+00 2.656080000000000219e+00 5.318629999999999747e+00 2.381349999999999856e+00 2.705680000000000085e+00 8.713999999999999524e-02 2.184410000000000185e+00 7.624970000000000248e+00 5.359370000000000189e+00 2.689579999999999860e+00 7.723139999999999894e+00 1.027834000000000003e+01 7.829019999999999868e+00 2.659030000000000005e+00 5.185940000000000438e+00 7.698310000000000208e+00 2.945619999999999905e+00 1.053744000000000014e+01 7.509559999999999569e+00 7.551980000000000359e+00 5.537200000000000344e+00 8.083819999999999339e+00 7.622650000000000148e+00 1.062383999999999951e+01 3.629000000000000281e-02 1.014771999999999963e+01 4.786609999999999587e+00 1.016352999999999973e+01 1.262999999999999956e-01 1.064123999999999981e+01 1.024253000000000036e+01 5.319819999999999993e+00 5.398019999999999818e+00 2.287800000000000111e-01 5.681490000000000151e+00 1.010632000000000019e+01 5.160580000000000389e+00 1.018032000000000004e+01 5.352129999999999832e+00 5.387839999999999741e+00 2.999200000000000199e-01 1.357099999999999973e-01 4.781699999999999839e+00 5.403550000000000075e+00 5.230990000000000251e+00 5.022549999999999848e+00 5.274600000000000399e+00 1.045194000000000045e+01 4.161039999999999850e+00 4.444510000000000183e+00 6.998129999999999740e+00 3.778929999999999900e+00 3.597440000000000193e+00 1.779789999999999983e+00 3.700380000000000003e+00 8.675019999999999953e+00 4.265150000000000219e+00 3.584690000000000154e+00 9.263709999999999667e+00 9.517810000000000770e+00 9.011540000000000106e+00 3.843220000000000081e+00 4.152470000000000105e+00 8.725310000000000343e+00 4.062039999999999651e+00 8.990679999999999339e+00 8.645730000000000359e+00 8.971489999999999299e+00 1.795009999999999994e+00 8.732549999999999812e+00 9.218959999999999155e+00 9.214999999999999858e+00 3.314299999999999802e+00 7.325399999999999689e-01 7.480999999999999872e-01 4.222199999999999953e+00 1.440199999999999925e+00 6.273880000000000123e+00 4.316399999999999793e+00 6.863089999999999691e+00 8.431400000000000006e-01 2.863500000000000156e+00 6.092389999999999972e+00 6.097430000000000128e+00 8.771539999999999893e+00 3.689960000000000129e+00 1.436490000000000045e+00 6.676630000000000287e+00 1.095639999999999947e+00 5.938509999999999955e+00 4.439600000000000435e+00 1.006860000000000088e+00 3.938450000000000006e+00 1.329820000000000002e+00 1.612859999999999960e+00 9.472630000000000550e+00 3.737839999999999829e+00 6.488450000000000273e+00 3.461660000000000181e+00 3.974600000000000133e+00 6.636709999999999887e+00 8.886150000000000659e+00 9.575060000000000571e+00 1.305229999999999890e+00 4.002740000000000187e+00 6.604490000000000194e+00 1.261840000000000073e+00 9.316259999999999764e+00 8.811640000000000583e+00 6.555769999999999875e+00 3.626450000000000173e+00 9.254379999999999384e+00 6.788759999999999906e+00 8.968959999999999155e+00 3.453739999999999810e+00 4.029720000000000191e+00 4.527510000000000367e+00 5.716440000000000410e+00 6.860039999999999694e+00 6.735890000000000377e+00 3.623190000000000133e+00 8.858760000000000190e+00 1.727130000000000054e+00 6.805100000000000371e+00 8.831730000000000302e+00 7.328739999999999810e+00 9.546689999999999898e+00 6.596669999999999590e+00 9.189300000000000246e-01 1.015700000000000047e+00 4.139000000000000234e+00 8.904809999999999448e+00 8.685320000000000817e+00 1.011830000000000007e+00 1.041009999999999991e+00 1.519900000000000029e+00 9.145810000000000883e+00 6.600189999999999557e+00 1.535730000000000040e+00 1.558750000000000080e+00 7.129279999999999617e+00 7.031899999999999817e-01 1.349939999999999918e+00 1.267130000000000090e+00 1.147999999999999909e+00 6.093029999999999724e+00 3.879360000000000142e+00 1.510320000000000107e+00 7.103760000000000296e+00 8.678750000000000853e+00 6.359250000000000291e+00 8.934810000000000585e+00 4.336669999999999803e+00 4.121000000000000441e+00 1.898379999999999956e+00 9.233219999999999317e+00 6.085899999999999643e+00 6.688019999999999854e+00 4.220839999999999925e+00 6.801269999999999705e+00 6.637450000000000294e+00 9.276519999999999655e+00 1.439780000000000060e+00 3.462680000000000202e+00 3.416609999999999925e+00 3.302249999999999908e+00 4.427069999999999617e+00 9.808370000000000033e+00 4.394700000000000273e-01 8.593410000000000437e+00 6.197700000000000431e-01 4.016040000000000276e+00 9.343830000000000524e+00 6.974829999999999863e+00 6.672900000000000276e+00 4.659620000000000317e+00 5.776599999999999513e-01 6.559289999999999843e+00 3.849289999999999878e+00 6.427100000000000257e+00 6.007690000000000197e+00 9.880330000000000723e+00 2.107240000000000002e+00 9.415639999999999787e+00 9.634949999999999903e+00 6.878870000000000040e+00 1.235840000000000050e+00 4.292159999999999975e+00 6.441690000000000360e+00 1.192409999999999970e+00 4.075459999999999638e+00 6.642700000000000271e-01 1.065299999999999914e+00 8.915649999999999409e+00 3.532290000000000152e+00 1.009660000000000002e+00 9.794079999999999231e+00 8.851369999999999294e+00 7.098259999999999792e+00 1.470820000000000016e+00 3.555680000000000174e+00 6.063159999999999883e+00 3.787339999999999929e+00 9.200110000000000454e+00 8.862019999999999342e+00 9.111019999999999897e+00 4.434239999999999959e+00 6.433239999999999625e+00 9.225410000000000110e+00 1.015174000000000021e+01 1.957899999999999974e+00 8.831099999999999506e-01 4.679299999999999571e+00 8.870860000000000412e+00 1.916670000000000096e+00 7.088630000000000209e+00 1.588589999999999947e+00 6.232630000000000337e+00 9.667499999999999982e-01 3.141499999999999848e-01 7.000379999999999825e+00 6.163700000000000401e+00 6.190339999999999954e+00 1.995290000000000008e+00 9.594200000000000506e-01 5.950829999999999842e+00 4.129979999999999762e+00 3.596499999999999808e+00 6.855249999999999844e+00 7.129330000000000389e+00 1.544710000000000027e+00 8.486219999999999430e+00 5.878809999999999647e+00 6.380670000000000286e+00
1.031298999999999921e+01 2.949380000000000113e+00 2.858280000000000154e+00 2.728400000000000269e-01 2.701880000000000059e+00 7.781880000000000130e+00 5.772899999999999698e-01 7.791789999999999772e+00 2.654030000000000111e+00 1.869999999999999917e-03 8.063409999999999300e+00 8.075079999999999814e+00 5.086299999999999599e+00 2.433320000000000149e+00 2.355560000000000098e+00 5.206209999999999560e+00 2.935329999999999995e+00 8.150430000000000064e+00 4.896930000000000227e+00 7.693069999999999631e+00 2.479509999999999881e+00 4.781539999999999679e+00 8.140380000000000393e+00 7.777549999999999741e+00 2.478489999999999860e+00 2.210399999999999865e-01 2.599299999999999944e+00 2.489269999999999872e+00 1.038378999999999941e+01 8.194020000000000081e+00 2.520820000000000061e+00 5.339819999999999567e+00 2.471929999999999961e+00 2.320920000000000094e+00 5.309199999999999697e+00 8.208429999999999893e+00 7.398920000000000385e+00 1.008075000000000010e+01 2.605480000000000018e+00 7.333099999999999952e+00 1.023268999999999984e+01 7.585950000000000415e+00 7.277009999999999756e+00 4.848440000000000083e+00 2.846799999999999997e+00 7.863179999999999836e+00 5.469039999999999679e+00 8.298049999999999926e+00 2.512430000000000163e+00 2.811869999999999870e+00 5.579509999999999970e+00 2.788009999999999877e+00 2.286659999999999915e+00 8.060000000000000497e-02 2.745049999999999990e+00 8.155590000000000117e+00 5.354650000000000354e+00 2.566940000000000222e+00 7.988809999999999967e+00 1.059975000000000023e+01 7.939720000000000333e+00 2.941600000000000215e+00 5.563310000000000421e+00 7.750149999999999650e+00 2.724779999999999980e+00 1.254200000000000037e-01 7.314189999999999969e+00 7.202980000000000160e+00 5.705949999999999633e+00 8.327619999999999578e+00 7.624159999999999826e+00 1.291799999999999893e-01 1.010405000000000086e+01 2.641899999999999804e-01 5.744259999999999700e+00 1.021898999999999980e+01 1.033519000000000077e+01 4.563499999999999779e-01 1.174999999999999933e-01 5.820850000000000080e+00 5.389300000000000423e+00 3.982999999999999735e-02 4.605699999999999683e+00 1.918700000000000128e-01 5.245759999999999756e+00 1.688099999999999878e-01 5.364289999999999559e+00 5.696139999999999759e+00 1.003350000000000009e+01 1.064175000000000004e+01 4.689680000000000071e+00 5.088829999999999742e+00 5.326389999999999958e+00 5.521020000000000039e+00 5.811689999999999579e+00 1.068158000000000030e+01 2.051639999999999908e+00 6.880580000000000140e+00 1.478569999999999940e+00 3.903309999999999835e+00 4.071500000000000341e+00 6.806269999999999598e+00 3.496280000000000054e+00 3.482089999999999907e+00 1.577039999999999997e+00 5.995049999999999990e+00 6.032670000000000421e+00 6.981130000000000280e+00 9.538999999999999702e+00 1.488779999999999992e+00 4.263539999999999885e+00 6.153800000000000381e+00 4.071360000000000312e+00 9.824089999999999989e+00 3.473170000000000091e+00 8.955009999999999692e+00 3.293769999999999865e+00 2.560709999999999820e+00 1.904199999999999893e+00 8.409689999999999444e+00 3.421829999999999927e+00 3.933219999999999938e+00 9.099809999999999732e+00 9.325250000000000483e+00 9.018370000000000886e+00 1.003363000000000049e+01 6.211899999999999977e+00 3.957129999999999814e+00 1.538669999999999982e+00 3.600000000000000089e+00 9.697499999999999787e+00 6.379830000000000112e+00 9.063100000000000378e+00 3.753919999999999924e+00 1.594209999999999905e+00 1.212739999999999929e+00 9.392490000000000450e+00 4.468890000000000029e+00 4.118330000000000268e+00 6.944280000000000008e+00 4.540060000000000429e+00 4.367539999999999978e+00 2.032509999999999817e+00 5.857649999999999579e+00 1.394430000000000058e+00 1.451470000000000038e+00 1.448409999999999975e+00 4.028139999999999610e+00 6.590250000000000163e+00 9.554090000000000416e+00 6.273859999999999992e+00 8.974610000000000198e+00 6.417810000000000237e+00 9.173600000000000421e+00 4.242539999999999978e+00 9.374240000000000350e+00 6.267940000000000289e+00 6.525800000000000267e+00 4.342410000000000103e+00 9.813100000000000156e-01 4.167399999999999771e+00 1.739770000000000039e+00 1.389270000000000005e+00 9.017849999999999255e+00 9.270649999999999835e+00 3.439810000000000034e+00 7.069289999999999630e+00 7.073940000000000339e+00 6.509470000000000312e+00 1.088529999999999998e+00 1.690720000000000001e+00 1.036859999999999893e+00 7.153500000000000192e+00 6.702499999999999680e+00 9.098810000000000286e+00 4.476750000000000007e+00 4.137870000000000381e+00 9.018029999999999546e+00 1.130880000000000107e+00 7.001940000000000275e+00 4.455879999999999619e+00 5.660680000000000156e+00 1.657739999999999991e+00 6.918280000000000207e+00 6.653179999999999872e+00 1.372870000000000035e+00 8.960700000000000331e-01 1.631950000000000012e+00 6.449089999999999989e+00 1.003969999999999985e+01 2.023839999999999861e+00 1.005040999999999940e+01 9.337109999999999133e+00 9.006059999999999732e+00 2.095450000000000035e+00 1.117790000000000061e+00 3.923090000000000188e+00 9.110609999999999431e+00 6.747419999999999973e+00 3.784330000000000194e+00 6.955580000000000318e+00 3.522339999999999804e+00 1.925300000000000067e-01 1.059620000000000006e+00 9.316029999999999589e+00 3.552369999999999806e+00 6.781080000000000219e+00 9.067360000000000753e+00 6.918770000000000309e+00 8.804669999999999774e+00 8.677410000000000068e+00 5.982969999999999899e+00 6.451590000000000380e+00 1.257360000000000033e+00 6.378350000000000186e+00 9.649739999999999540e+00 6.957499999999999574e+00 8.961880000000000734e+00 8.346599999999999575e-01 1.471659999999999968e+00 6.430659999999999599e+00 3.995389999999999997e+00 6.877670000000000172e+00 1.116049999999999986e+00 4.799870000000000303e+00 6.984110000000000262e+00 6.419349999999999667e+00 9.804629999999999512e+00 3.707440000000000069e+00 9.440590000000000259e+00 9.170619999999999550e+00 5.689530000000000420e+00 7.244199999999999529e-01 7.407390000000000363e+00 3.289839999999999876e+00 4.155579999999999607e+00 4.211979999999999613e+00 1.685060000000000002e+00 1.847460000000000102e+00 3.849660000000000082e+00 9.432249999999999801e+00 6.943310000000000315e+00 4.077379999999999782e+00 1.275740000000000096e+00 4.605830000000000091e+00 6.380659999999999776e+00 6.363380000000000258e+00 3.774939999999999962e+00 4.235870000000000246e+00 1.297960000000000003e+00 9.110780000000000101e+00 1.465300000000000047e+00 6.088230000000000253e+00 9.232720000000000482e+00 3.775809999999999889e+00 9.135130000000000194e+00 9.095679999999999765e+00 6.960600000000000342e+00 4.675480000000000302e+00 1.803279999999999994e+00 1.033644999999999925e+01 4.485459999999999781e+00 1.047350000000000003e+00 3.577949999999999964e+00 9.511620000000000630e+00 6.194790000000000241e+00 7.026700000000000168e-01 4.455949999999999633e+00 8.310589999999999478e+00 7.881799999999999917e-01 6.187240000000000073e+00 8.598509999999999209e+00 8.988099999999999312e+00 7.289640000000000342e+00 7.891700000000000381e-01 1.008647000000000027e+01 9.040800000000000836e+00 1.369650000000000034e+00 1.592640000000000056e+00 1.195130000000000026e+00 9.575229999999999464e+00 6.739880000000000315e+00
1.646199999999999886e-01 2.726659999999999862e+00 2.594770000000000021e+00 4.218000000000000221e-02 2.831409999999999982e+00 8.140909999999999869e+00 6.518000000000000183e-02 7.664570000000000327e+00 3.023960000000000203e+00 9.924049999999999372e+00 7.996059999999999945e+00 8.098420000000000840e+00 5.095699999999999896e+00 2.624210000000000154e+00 2.500469999999999970e+00 5.033249999999999780e+00 2.798939999999999984e+00 8.102309999999999235e+00 5.056339999999999613e+00 7.879879999999999995e+00 2.853880000000000194e+00 5.142680000000000362e+00 7.949530000000000207e+00 8.106680000000000774e+00 2.671739999999999782e+00 3.084999999999999895e-02 2.625649999999999817e+00 2.149220000000000130e+00 1.010027999999999970e+01 7.748170000000000002e+00 2.798919999999999852e+00 5.019160000000000288e+00 2.658889999999999976e+00 2.521150000000000002e+00 5.092970000000000219e+00 7.974389999999999645e+00 7.527129999999999654e+00 1.398600000000000121e-01 2.337819999999999787e+00 7.978600000000000136e+00 1.419900000000000051e-01 7.603939999999999699e+00 7.643880000000000230e+00 5.117930000000000312e+00 2.604880000000000084e+00 7.964319999999999844e+00 5.326590000000000380e+00 7.812730000000000175e+00 2.632559999999999789e+00 2.325509999999999966e+00 5.625539999999999985e+00 2.748299999999999965e+00 2.687780000000000058e+00 1.040435000000000088e+01 2.506930000000000103e+00 7.505370000000000097e+00 5.531729999999999592e+00 2.295749999999999957e+00 7.953820000000000334e+00 1.049535000000000018e+01 7.566139999999999866e+00 2.608839999999999826e+00 5.365700000000000358e+00 7.860719999999999708e+00 2.713280000000000136e+00 5.150000000000000064e-03 7.491229999999999833e+00 7.892689999999999984e+00 5.119559999999999889e+00 7.492449999999999832e+00 7.759710000000000107e+00 1.053584999999999994e+01 1.003631999999999991e+01 1.408099999999999907e-01 5.093069999999999986e+00 4.748999999999999749e-02 1.074399999999999938e-01 2.946400000000000130e-01 -3.104000000000000162e-02 5.141070000000000029e+00 5.071069999999999744e+00 1.025529000000000046e+01 5.523520000000000429e+00 1.032515000000000072e+01 5.197449999999999903e+00 2.009900000000000020e-01 5.619979999999999976e+00 5.092190000000000438e+00 5.022999999999999687e-02 1.047964999999999947e+01 5.156139999999999723e+00 5.133090000000000153e+00 5.559160000000000323e+00 5.274659999999999904e+00 5.262039999999999829e+00 1.046984999999999921e+01 4.296630000000000393e+00 4.044340000000000046e+00 3.942470000000000141e+00 3.791389999999999816e+00 4.253099999999999881e+00 9.360709999999999198e+00 3.206100000000000172e+00 8.619020000000000792e+00 3.410719999999999974e+00 3.819580000000000197e+00 9.470029999999999504e+00 8.979699999999999349e+00 9.325659999999999172e+00 4.290930000000000355e+00 3.354740000000000055e+00 8.951589999999999492e+00 4.086610000000000298e+00 9.055820000000000647e+00 8.613060000000000827e+00 9.361179999999999168e+00 3.894010000000000193e+00 8.738170000000000215e+00 9.200309999999999988e+00 8.902960000000000207e+00 4.127779999999999561e+00 1.080940000000000012e+00 1.898979999999999890e+00 4.114919999999999689e+00 1.329309999999999992e+00 7.128260000000000041e+00 4.115029999999999966e+00 6.379809999999999981e+00 1.738799999999999901e+00 4.252650000000000041e+00 6.455689999999999706e+00 7.242270000000000429e+00 8.942989999999999995e+00 1.544699999999999962e+00 1.822770000000000001e+00 8.848069999999999879e+00 1.799830000000000041e+00 7.160899999999999821e+00 3.823580000000000201e+00 1.115310000000000024e+00 4.474169999999999980e+00 4.320310000000000095e+00 1.644830000000000014e+00 9.782199999999999562e+00 3.985619999999999941e+00 6.481589999999999741e+00 4.588969999999999771e+00 3.756619999999999848e+00 6.805240000000000400e+00 9.949500000000000455e+00 9.221170000000000755e+00 1.896060000000000079e+00 4.493409999999999904e+00 9.344350000000000378e+00 1.675019999999999953e+00 9.826439999999999841e+00 9.045730000000000715e+00 6.675650000000000084e+00 4.687540000000000262e+00 8.865289999999999893e+00 6.703249999999999709e+00 9.335739999999999483e+00 3.936179999999999790e+00 4.095010000000000261e+00 1.281590000000000007e+00 3.705769999999999786e+00 3.751689999999999969e+00 6.670090000000000074e+00 3.611639999999999961e+00 9.271940000000000737e+00 9.656000000000000139e-01 3.496799999999999908e+00 8.977869999999999351e+00 6.342600000000000016e+00 9.428219999999999601e+00 3.928729999999999833e+00 1.055029999999999912e+00 8.972379999999999356e+00 4.144739999999999647e+00 6.469739999999999824e+00 8.727370000000000516e+00 9.520120000000000360e+00 1.102249999999999952e+00 8.772119999999999251e+00 9.107910000000000394e+00 6.296529999999999738e+00 1.411149999999999904e+00 1.239579999999999904e+00 3.841089999999999893e+00 1.816699999999999982e+00 1.685890000000000111e+00 8.870129999999999626e+00 1.074829999999999952e+00 6.199370000000000047e+00 3.522619999999999862e+00 1.393510000000000026e+00 6.755959999999999965e+00 9.233370000000000744e+00 6.546050000000000146e+00 1.847949999999999982e+00 3.633230000000000182e+00 6.624410000000000132e+00 1.290629999999999944e+00 8.497759999999999536e+00 6.718580000000000219e+00 6.901799999999999713e+00 3.010689999999999866e+00 6.178889999999999993e+00 6.781069999999999709e+00 9.190080000000000027e+00 1.487249999999999961e+00 3.903010000000000090e+00 1.520240000000000036e+00 1.214530000000000109e+00 4.029630000000000045e+00 6.930670000000000108e+00 1.029360000000000053e+00 9.312010000000000787e+00 1.723500000000000032e+00 1.231950000000000101e+00 8.374829999999999330e+00 7.079550000000000232e+00 6.623700000000000365e+00 3.704800000000000093e+00 1.569620000000000015e+00 6.291109999999999758e+00 3.452809999999999935e+00 6.427590000000000359e+00 6.430609999999999715e+00 8.975160000000000693e+00 1.436579999999999968e+00 6.300749999999999851e+00 9.251590000000000202e+00 6.887669999999999959e+00 1.577939999999999898e+00 3.670760000000000023e+00 4.487239999999999895e+00 1.383340000000000014e+00 4.021399999999999864e+00 9.477919999999999234e+00 7.495899999999999785e-01 8.730489999999999640e+00 4.671689999999999898e+00 1.193659999999999943e+00 9.353970000000000340e+00 9.598489999999999966e+00 6.901200000000000223e+00 4.493820000000000370e+00 4.288689999999999891e+00 6.276159999999999961e+00 3.736050000000000093e+00 9.357570000000000832e+00 6.078500000000000014e+00 9.132540000000000546e+00 4.303309999999999746e+00 6.219140000000000335e+00 9.164690000000000225e+00 9.688719999999999999e+00 1.488010000000000055e+00 1.291560000000000041e+00 8.541100000000000358e-01 1.170199999999999907e+00 9.923899999999999944e-01 6.413949999999999818e+00 9.445959999999999468e+00 6.829449999999999577e+00 1.326759999999999939e+00 1.759100000000000108e+00 5.927579999999999849e+00 6.308810000000000251e+00 6.726250000000000284e+00 1.017030000000000101e+00 6.524199999999999999e-01 7.062400000000000233e+00 6.947100000000000497e-01 5.784469999999999779e+00 7.093740000000000379e+00 5.977759999999999962e+00 6.457699999999999552e-01 6.936009999999999565e+00 6.279969999999999608e+00 6.294159999999999755e+00
1.017511999999999972e+01 2.850290000000000212e+00 2.555239999999999956e+00 1.015792000000000073e+01 2.846519999999999939e+00 7.817750000000000199e+00 9.893629999999999924e+00 7.892619999999999969e+00 2.890930000000000000e+00 2.627399999999999736e-01 7.627150000000000318e+00 8.395880000000000010e+00 5.210790000000000255e+00 2.724380000000000024e+00 2.822400000000000020e+00 5.189919999999999867e+00 2.672579999999999956e+00 8.146539999999999893e+00 4.686219999999999608e+00 7.951080000000000148e+00 3.029799999999999827e+00 5.250750000000000028e+00 7.403749999999999609e+00 8.313499999999999446e+00 2.283500000000000085e+00 1.164400000000000018e-01 2.287920000000000176e+00 2.501409999999999911e+00 1.031202000000000041e+01 7.937700000000000422e+00 2.375900000000000123e+00 5.126640000000000086e+00 2.692930000000000046e+00 2.504710000000000214e+00 4.876970000000000027e+00 7.260830000000000339e+00 7.503829999999999778e+00 2.093599999999999905e-01 2.462720000000000020e+00 7.693360000000000198e+00 1.276299999999999935e-01 8.078509999999999636e+00 7.575470000000000148e+00 5.520909999999999762e+00 2.822090000000000209e+00 7.621749999999999581e+00 5.073430000000000106e+00 7.791890000000000427e+00 2.783030000000000115e+00 2.394320000000000004e+00 4.991279999999999717e+00 2.619850000000000012e+00 2.676520000000000010e+00 1.051854999999999940e+01 2.323300000000000143e+00 7.896670000000000300e+00 5.090340000000000309e+00 2.664800000000000058e+00 7.568039999999999878e+00 3.887999999999999790e-02 7.729449999999999932e+00 2.688709999999999933e+00 5.037989999999999746e+00 8.087669999999999249e+00 2.925469999999999793e+00 1.041765000000000008e+01 7.521720000000000184e+00 7.918020000000000280e+00 5.243149999999999977e+00 7.752659999999999663e+00 7.843399999999999928e+00 1.052865000000000073e+01 1.024671999999999983e+01 1.208400000000000030e-01 5.582950000000000301e+00 1.018971999999999944e+01 1.451399999999999912e-01 1.047264999999999979e+01 3.228000000000000314e-02 5.146910000000000096e+00 5.126680000000000348e+00 1.814199999999999979e-01 5.215499999999999581e+00 1.047494999999999976e+01 5.298580000000000290e+00 2.966999999999999846e-02 5.992399999999999949e+00 5.339400000000000368e+00 3.224699999999999789e-01 2.532099999999999906e-01 5.141370000000000218e+00 5.279300000000000104e+00 5.383300000000000196e+00 5.566139999999999866e+00 5.198170000000000179e+00 1.882600000000000107e-01 3.691469999999999807e+00 3.870359999999999800e+00 3.254000000000000004e+00 3.871129999999999960e+00 4.116819999999999702e+00 8.686939999999999884e+00 3.196070000000000189e+00 9.087960000000000704e+00 3.663990000000000080e+00 3.691819999999999879e+00 8.523780000000000356e+00 8.664820000000000633e+00 8.994790000000000063e+00 4.159749999999999837e+00 3.760930000000000106e+00 9.126250000000000639e+00 4.262690000000000090e+00 9.199270000000000280e+00 8.434689999999999799e+00 9.122239999999999682e+00 3.773699999999999832e+00 9.089829999999999188e+00 9.160869999999999180e+00 9.191480000000000317e+00 3.936720000000000219e+00 1.335259999999999891e+00 1.644709999999999894e+00 4.097310000000000230e+00 1.749619999999999953e+00 6.733710000000000306e+00 3.617539999999999978e+00 6.770340000000000025e+00 2.077630000000000088e+00 4.139000000000000234e+00 6.106139999999999901e+00 7.028859999999999886e+00 9.223629999999999995e+00 1.327450000000000019e+00 1.348859999999999948e+00 9.332819999999999894e+00 1.501840000000000064e+00 6.791809999999999903e+00 4.398080000000000211e+00 1.486259999999999915e+00 4.081089999999999662e+00 3.708990000000000009e+00 1.554589999999999916e+00 9.385500000000000398e+00 3.588509999999999867e+00 6.500049999999999883e+00 4.452449999999999797e+00 4.161710000000000242e+00 6.424920000000000186e+00 1.003463999999999956e+01 9.464439999999999742e+00 1.617690000000000072e+00 4.302450000000000330e+00 8.935190000000000410e+00 1.562000000000000055e+00 9.183429999999999538e+00 9.130169999999999675e+00 6.738269999999999982e+00 4.598980000000000068e+00 9.259399999999999409e+00 6.623529999999999696e+00 9.627230000000000842e+00 4.058189999999999742e+00 4.243730000000000224e+00 1.010539999999999994e+00 3.801759999999999806e+00 3.905689999999999884e+00 5.884149999999999991e+00 3.373709999999999987e+00 9.356239999999999668e+00 7.859399999999999720e-01 3.422309999999999963e+00 9.389110000000000511e+00 6.054909999999999570e+00 8.992409999999999570e+00 4.649939999999999962e+00 8.213899999999999535e-01 9.022180000000000533e+00 4.230360000000000120e+00 6.329259999999999664e+00 8.590759999999999508e+00 8.947950000000000514e+00 1.386710000000000109e+00 8.539139999999999731e+00 9.096500000000000696e+00 6.392640000000000100e+00 1.561250000000000027e+00 1.529870000000000063e+00 3.443839999999999790e+00 1.134970000000000034e+00 9.031700000000000284e-01 8.920260000000000744e+00 1.084270000000000067e+00 6.784449999999999648e+00 3.687600000000000211e+00 1.510769999999999946e+00 6.192639999999999922e+00 9.081989999999999341e+00 6.929599999999999760e+00 1.773249999999999993e+00 3.438480000000000203e+00 6.216560000000000308e+00 1.281570000000000098e+00 8.949170000000000513e+00 6.143379999999999619e+00 6.582029999999999603e+00 3.881380000000000052e+00 6.760889999999999844e+00 6.227820000000000356e+00 9.421359999999999957e+00 1.332689999999999930e+00 3.660670000000000091e+00 1.376069999999999904e+00 1.136069999999999913e+00 3.511029999999999873e+00 6.430250000000000021e+00 8.055700000000000083e-01 8.890719999999999956e+00 1.608230000000000048e+00 1.210720000000000018e+00 8.857310000000000016e+00 7.061200000000000365e+00 6.524140000000000050e+00 4.120020000000000238e+00 1.664570000000000105e+00 6.326290000000000191e+00 3.948310000000000208e+00 6.938500000000000334e+00 5.916800000000000281e+00 9.243679999999999453e+00 1.485810000000000075e+00 6.201999999999999957e+00 8.914210000000000633e+00 7.018600000000000172e+00 1.551919999999999966e+00 3.978950000000000209e+00 4.274399999999999977e+00 1.189119999999999955e+00 3.373439999999999994e+00 9.232310000000000016e+00 7.235599999999999810e-01 9.032239999999999824e+00 4.589249999999999829e+00 1.158179999999999987e+00 8.603120000000000545e+00 1.002102000000000004e+01 6.407560000000000144e+00 4.047950000000000159e+00 4.123840000000000394e+00 6.603480000000000238e+00 3.780349999999999877e+00 9.599650000000000460e+00 5.840480000000000338e+00 9.284399999999999764e+00 4.399040000000000283e+00 6.450289999999999857e+00 9.049519999999999342e+00 9.503669999999999618e+00 1.525139999999999940e+00 1.166369999999999907e+00 6.916799999999999615e-01 1.735260000000000025e+00 8.543899999999999828e-01 6.004629999999999690e+00 1.425529999999999964e+00 6.207729999999999748e+00 9.727700000000000236e-01 1.209039999999999893e+00 6.184960000000000235e+00 6.321920000000000428e+00 6.832519999999999705e+00 1.476699999999999902e+00 1.058999999999999941e+00 6.693109999999999893e+00 1.591099999999999959e+00 6.410389999999999588e+00 6.886599999999999611e+00 6.924470000000000347e+00 1.329919999999999991e+00 6.727000000000000313e+00 6.410180000000000433e+00 6.764960000000000306e+00