2.503270000000000106e+00 4.433000000000000135e-02 3.047000000000000153e+00 3.001090000000000035e+00 1.043665999999999983e+01 8.210100000000000620e+00 2.497209999999999930e+00 5.049859999999999793e+00 2.734210000000000029e+00 2.885409999999999808e+00 5.447000000000000064e+00 8.496320000000000761e+00 1.023071999999999981e+01 2.391980000000000217e+00 2.548960000000000115e+00 2.806100000000000261e-01 2.831160000000000121e+00 8.440450000000000230e+00 7.386000000000000343e-01 7.865739999999999732e+00 2.818389999999999951e+00 8.855999999999999983e-02 7.623459999999999681e+00 7.784749999999999837e+00 8.239319999999999311e+00 2.567149999999999821e+00 5.136739999999999640e+00 8.175129999999999342e+00 2.729070000000000107e+00 1.058599000000000068e+01 7.154080000000000439e+00 8.085879999999999512e+00 5.657659999999999911e+00 8.321559999999999846e+00 7.721280000000000143e+00 1.070238999999999940e+01 5.418870000000000076e+00 2.445799999999999919e-01 1.009499999999999981e-01 5.549170000000000158e+00 4.179899999999999727e-01 5.036059999999999981e+00 5.583199999999999719e+00 4.998669999999999725e+00 5.544999999999999929e-02 4.886849999999999916e+00 5.235979999999999634e+00 5.550620000000000331e+00 5.168520000000000003e+00 2.781670000000000087e+00 2.408110000000000195e+00 5.214310000000000223e+00 2.530710000000000015e+00 7.914369999999999905e+00 4.847909999999999719e+00 7.159510000000000041e+00 2.156789999999999985e+00 5.685290000000000177e+00 8.034570000000000434e+00 8.514390000000000569e+00 7.847109999999999808e+00 1.029115999999999964e+01 2.129550000000000054e+00 8.064370000000000260e+00 2.827899999999999858e-01 7.864279999999999937e+00 8.065440000000000609e+00 5.375149999999999650e+00 2.413149999999999906e+00 8.064059999999999562e+00 5.387150000000000105e+00 7.682489999999999597e+00 6.120100000000000540e-01 1.044536000000000087e+01 1.064329000000000036e+01 7.660000000000000142e-02 1.732799999999999896e-01 5.612449999999999939e+00 2.509700000000000264e-01 4.782219999999999693e+00 1.878700000000000092e-01 1.033291999999999966e+01 5.397059999999999746e+00 5.391070000000000029e+00 2.655240000000000045e+00 2.498499999999999943e+00 5.267100000000000115e+00 2.669799999999999951e+00 2.370439999999999880e+00 1.794999999999999929e-01 2.995249999999999968e+00 7.947949999999999626e+00 5.586120000000000196e+00 2.996100000000000207e+00 7.892920000000000158e+00 1.070589000000000013e+01 9.206070000000000420e+00 3.758420000000000094e+00 1.464069999999999983e+00 1.027022000000000013e+01 4.703549999999999898e+00 7.326109999999999900e+00 9.302640000000000242e+00 3.817120000000000068e+00 4.280660000000000132e+00 7.319449999999999790e+00 1.000697000000000081e+01 6.121430000000000149e+00 1.403129999999999988e+00 1.146249999999999991e+00 4.151040000000000063e+00 6.818760000000000154e+00 9.934100000000000152e-01 9.604029999999999845e+00 7.103180000000000049e+00 6.722629999999999661e+00 1.373830000000000107e+00 2.017710000000000115e+00 9.453960000000000363e+00 9.717380000000000351e+00 3.416040000000000187e+00 8.083800000000000097e+00 3.115369999999999973e+00 4.056709999999999816e+00 7.369150000000000311e+00 8.998440000000000438e+00 9.908149999999999125e+00 8.780089999999999506e+00 1.024118999999999957e+01 4.299789999999999779e+00 1.781770000000000076e+00 9.387409999999999144e+00 1.218520000000000048e+00 1.125920000000000032e+00 1.368500000000000050e+00 9.639450000000000074e+00 1.167130000000000001e+00 9.450799999999999201e+00 9.350550000000000139e+00 6.409790000000000099e+00 3.379519999999999857e+00 3.703739999999999810e+00 6.347269999999999968e+00 6.863610000000000433e+00 6.161179999999999879e+00 4.457559999999999967e+00 2.781070000000000153e+00 9.426479999999999748e+00 3.860700000000000021e+00 9.458069999999999311e+00 9.167780000000000484e+00 9.402199999999999447e-01 4.049080000000000013e+00 9.957890000000000796e+00 9.516120000000000800e+00 7.198159999999999670e+00 6.032199999999999562e+00 1.146490000000000009e+00 1.916360000000000063e+00 4.004220000000000113e+00 6.725100000000000522e-01 6.616799999999999571e+00 4.684370000000000367e+00 8.380179999999999296e+00 5.325199999999999934e-01 1.176160000000000094e+00 6.760430000000000383e+00 6.492840000000000167e+00 1.584419999999999940e+00 6.692269999999999719e+00 4.205739999999999590e+00 4.323710000000000164e+00 4.626280000000000392e+00 9.160159999999999414e+00 3.456820000000000004e+00 5.758140000000000036e+00 4.487960000000000171e+00 9.056990000000000762e+00 6.415600000000000414e+00 9.159629999999999939e+00 6.679689999999999905e+00 1.653620000000000090e+00 7.166990000000000194e+00 6.366830000000000211e+00 3.207139999999999880e+00 3.692699999999999871e-01 5.712749999999999773e+00 7.144660000000000011e+00 4.083499999999999908e+00 6.575009999999999799e+00 6.774969999999999715e+00 7.010760000000000325e+00 7.378409999999999691e+00 9.391349999999999199e+00 4.504199999999999871e-01 7.780280000000000307e+00 4.254369999999999763e+00 6.086330000000000240e+00 4.812560000000000393e+00 9.826990000000000336e+00 8.986250000000000071e+00 6.748960000000000292e+00 9.053029999999999688e+00 3.544059999999999988e+00 9.199429999999999552e+00 1.742169999999999996e+00 6.614010000000000389e+00 8.896390000000000242e+00 1.520860000000000101e+00 1.231400000000000050e+00 9.625080000000000524e+00 9.549549999999999983e+00 2.205340000000000078e+00 6.664139999999999731e+00 7.269370000000000331e+00 1.000477000000000061e+01 3.733229999999999826e+00 3.176610000000000156e+00 3.659359999999999946e+00 6.551989999999999981e+00 3.951630000000000198e+00 8.531650000000000844e+00 6.381470000000000198e+00 2.489020000000000010e+00 4.408290000000000042e+00 5.141350000000000087e+00 9.008699999999999264e+00 6.068030000000000257e+00 3.710329999999999906e+00 8.002500000000000169e-01 8.659900000000000375e-01 1.420439999999999925e+00 1.761700000000000044e+00 6.752819999999999823e+00 1.134149999999999991e+00 6.348180000000000156e+00 1.559399999999999897e+00 9.164759999999999351e+00 7.164690000000000225e+00 6.081699999999999662e+00 1.561800000000000077e+00 4.035730000000000040e+00 4.768489999999999895e+00 1.351280000000000037e+00 6.881070000000000242e+00 9.150740000000000762e+00 1.646800000000000042e+00 8.752700000000000813e+00 1.295989999999999975e+00 1.416970000000000063e+00 1.247819999999999929e+00 9.445080000000000808e+00 3.741049999999999986e+00 3.624719999999999942e+00 1.328070000000000084e+00 1.515640000000000098e+00 4.285400000000000098e+00 9.565379999999999328e+00 7.463680000000000092e+00 8.917659999999999698e+00 8.314939999999999998e+00 1.473950000000000093e+00 9.048629999999999285e+00 4.365090000000000359e+00 3.756559999999999899e+00 5.996489999999999654e+00 8.541600000000000303e-01 4.042270000000000252e+00 3.490479999999999805e+00 6.368019999999999570e+00 4.350240000000000329e+00 1.443800000000000083e-01 3.610259999999999803e+00 2.343770000000000131e+00 9.538669999999999760e+00 6.558419999999999916e+00
2.480379999999999807e+00 2.425100000000000033e-01 2.564509999999999845e+00 2.599299999999999944e+00 5.945200000000000484e-01 8.054059999999999775e+00 2.648899999999999810e+00 5.293669999999999654e+00 2.807770000000000099e+00 2.955200000000000049e+00 5.141779999999999795e+00 7.949659999999999727e+00 3.554999999999999827e-02 2.325000000000000178e+00 2.788980000000000015e+00 7.239999999999999908e-03 2.956879999999999953e+00 8.486810000000000187e+00 2.846699999999999786e-01 7.980979999999999741e+00 2.613280000000000047e+00 1.052238000000000007e+01 8.340329999999999799e+00 7.885209999999999830e+00 8.571279999999999788e+00 2.867869999999999919e+00 5.523889999999999745e+00 8.010770000000000834e+00 2.692250000000000032e+00 1.057967000000000013e+01 7.949200000000000266e+00 8.172240000000000393e+00 5.137190000000000367e+00 8.307940000000000325e+00 7.894779999999999909e+00 1.081367000000000012e+01 5.242750000000000021e+00 9.281000000000000361e-02 1.146400000000000058e-01 5.412340000000000373e+00 3.115399999999999836e-01 5.437310000000000088e+00 5.455330000000000013e+00 5.464480000000000004e+00 5.186699999999999644e-01 5.607520000000000060e+00 5.476079999999999615e+00 5.704799999999999649e+00 5.107230000000000381e+00 2.363680000000000003e+00 2.855649999999999800e+00 5.815920000000000201e+00 2.547530000000000072e+00 8.045809999999999462e+00 5.339750000000000441e+00 8.283409999999999940e+00 2.138850000000000140e+00 5.321159999999999890e+00 8.288650000000000517e+00 8.303330000000000766e+00 7.711420000000000385e+00 2.368099999999999927e-01 2.213150000000000173e+00 7.992820000000000036e+00 1.028905999999999921e+01 8.050430000000000419e+00 7.955549999999999677e+00 4.701839999999999797e+00 2.895989999999999842e+00 7.941690000000000360e+00 5.904410000000000380e+00 8.019460000000000477e+00 5.278000000000000053e-02 2.438700000000000034e-01 1.084296999999999933e+01 1.239800000000000069e-01 1.036525999999999925e+01 4.921540000000000248e+00 1.030048000000000030e+01 5.391899999999999693e+00 1.091606999999999950e+01 2.081999999999999962e-01 5.564049999999999940e+00 5.221659999999999968e+00 2.432259999999999867e+00 2.782760000000000122e+00 5.687120000000000175e+00 2.975439999999999863e+00 3.319010000000000016e+00 1.067676999999999943e+01 2.914709999999999912e+00 8.053979999999999251e+00 5.971119999999999983e+00 2.659429999999999961e+00 8.048759999999999692e+00 1.036206999999999923e+01 9.813539999999999708e+00 4.201880000000000059e+00 2.135559999999999903e+00 8.844269999999999854e+00 1.165389999999999926e+00 6.544019999999999726e+00 6.452210000000000001e+00 7.066019999999999968e+00 1.056619999999999893e+00 9.753980000000000317e+00 9.051019999999999399e+00 9.864489999999999981e+00 3.819230000000000125e+00 1.634069999999999911e+00 3.932789999999999786e+00 4.894370000000000331e+00 1.210569999999999924e+00 9.491020000000000678e+00 6.635749999999999815e+00 8.658350000000000435e+00 3.802779999999999827e+00 3.769340000000000135e+00 6.897669999999999746e+00 8.676899999999999835e+00 3.517049999999999788e+00 4.661839999999999762e+00 4.370429999999999815e+00 4.468720000000000248e+00 4.464439999999999742e+00 1.000286000000000008e+01 4.187100000000000044e+00 9.365119999999999223e+00 4.845930000000000071e+00 4.660199999999999676e+00 8.984799999999999898e+00 1.033596999999999966e+01 3.657820000000000071e+00 1.440560000000000063e+00 1.071290000000000076e+00 8.751810000000000755e+00 8.730180000000000717e+00 7.315540000000000376e+00 8.983079999999999288e+00 5.794559999999999711e+00 4.054710000000000036e+00 9.621560000000000556e+00 3.852790000000000159e+00 6.929190000000000182e+00 7.171509999999999607e+00 4.151930000000000121e+00 5.594719999999999693e+00 9.492200000000000415e+00 3.766809999999999992e+00 1.007014000000000031e+01 9.538579999999999615e+00 8.893700000000000827e+00 4.096140000000000114e+00 9.055920000000000414e+00 9.829850000000000421e+00 1.186160000000000103e+00 6.524670000000000414e+00 1.422160000000000091e+00 8.850799999999999779e-01 6.434999999999999609e+00 1.838989999999999903e+00 6.152529999999999610e+00 6.851609999999999978e+00 9.580159999999999343e+00 1.029600000000000071e+00 4.334369999999999834e+00 7.058209999999999873e+00 6.319639999999999702e+00 1.150150000000000006e+00 1.222380000000000022e+00 4.277160000000000295e+00 1.687829999999999941e+00 1.600049999999999972e+00 9.474449999999999150e+00 1.487789999999999946e+00 6.591779999999999973e+00 4.010880000000000223e+00 1.052910000000000013e+00 6.611150000000000304e+00 1.025717000000000034e+01 9.484939999999999927e+00 1.736869999999999914e+00 7.306799999999999962e-01 7.002419999999999867e+00 1.465219999999999967e+00 9.097550000000000026e+00 6.531600000000000072e+00 6.955829999999999735e+00 6.311720000000000219e+00 6.740249999999999631e+00 6.951439999999999841e+00 9.169629999999999725e+00 7.288909999999999556e+00 4.602619999999999933e+00 9.024799999999999489e-01 4.162740000000000329e+00 3.623250000000000082e+00 6.791299999999999670e+00 1.315639999999999921e+00 1.293029999999999902e+00 1.033090000000000064e+00 7.083619999999999806e+00 9.660660000000000025e+00 6.417119999999999713e+00 8.904279999999999973e+00 1.243530000000000024e+00 3.718490000000000073e+00 9.776630000000000820e+00 8.263800000000000034e-01 8.836919999999999220e+00 9.321809999999999263e+00 6.503949999999999676e+00 6.483730000000000437e+00 9.039960000000000662e+00 6.547299999999999898e+00 9.343880000000000408e+00 6.093429999999999680e+00 5.808950000000000280e+00 3.464830000000000076e+00 6.993330000000000268e+00 4.024820000000000064e+00 8.781670000000000087e+00 6.356080000000000396e+00 9.428100000000000369e-01 3.680909999999999904e+00 6.571360000000000312e+00 9.480100000000000193e+00 9.480629999999999669e+00 4.067079999999999806e+00 9.777570000000000761e+00 1.601699999999999902e+00 1.256809999999999983e+00 1.779090000000000060e+00 7.077139999999999986e+00 9.632440000000000779e+00 7.013749999999999929e+00 1.079620000000000024e+00 1.399459999999999926e+00 7.181020000000000181e+00 7.283549999999999969e+00 6.315899999999999848e-01 3.576919999999999877e+00 4.381429999999999936e+00 1.825620000000000021e+00 3.957809999999999828e+00 8.789799999999999613e+00 1.304049999999999931e+00 9.551949999999999719e+00 3.647860000000000102e+00 2.066440000000000055e+00 9.651540000000000674e+00 9.461259999999999337e+00 1.484110000000000040e+00 4.067190000000000083e+00 5.919200000000000017e-01 1.752459999999999907e+00 4.596639999999999837e+00 6.283369999999999678e+00 1.470860000000000056e+00 8.425800000000000622e+00 1.147189999999999932e+00 1.216329999999999911e+00 9.693799999999999528e+00 6.484420000000000073e+00 4.610640000000000072e+00 3.690090000000000092e+00 1.332319999999999949e+00 3.594380000000000130e+00 1.147710000000000008e+00 6.333560000000000301e+00 3.650830000000000020e+00 6.291409999999999947e+00 1.374779999999999891e+00 4.147359999999999935e+00 9.593769999999999243e+00 7.552080000000000126e+00
2.599229999999999929e+00 1.009703000000000017e+01 2.586559999999999970e+00 2.584309999999999885e+00 4.995999999999999747e-02 7.655850000000000044e+00 2.608940000000000037e+00 5.286889999999999645e+00 2.617010000000000058e+00 2.500890000000000057e+00 5.181440000000000268e+00 7.684359999999999857e+00 1.650899999999999868e-01 2.677140000000000075e+00 2.449170000000000069e+00 4.200999999999999873e-02 2.617350000000000065e+00 8.149079999999999657e+00 5.560999999999999971e-02 7.712729999999999642e+00 2.574930000000000163e+00 3.071300000000000141e-01 7.721320000000000405e+00 7.991249999999999964e+00 7.520089999999999719e+00 2.812759999999999927e+00 5.347139999999999560e+00 7.684020000000000294e+00 2.452910000000000146e+00 8.683000000000000440e-02 7.807909999999999684e+00 7.740569999999999951e+00 5.569749999999999979e+00 7.529550000000000409e+00 7.675430000000000419e+00 1.056786999999999921e+01 4.942910000000000359e+00 1.011433000000000071e+01 1.037847000000000008e+01 5.462939999999999685e+00 7.921999999999999875e-02 5.158870000000000289e+00 5.127570000000000405e+00 5.048670000000000435e+00 5.448999999999999677e-02 5.096569999999999823e+00 5.198439999999999728e+00 4.922299999999999898e+00 5.213099999999999845e+00 2.578419999999999934e+00 2.588449999999999918e+00 5.066449999999999676e+00 2.691570000000000018e+00 7.873330000000000162e+00 5.168590000000000018e+00 7.431799999999999962e+00 2.283230000000000093e+00 5.427130000000000010e+00 7.576270000000000060e+00 7.791159999999999641e+00 7.743389999999999773e+00 1.011973000000000056e+01 2.600020000000000220e+00 7.751579999999999693e+00 1.020283000000000051e+01 7.834800000000000431e+00 7.746269999999999989e+00 5.235870000000000246e+00 2.537380000000000191e+00 7.555539999999999701e+00 4.812990000000000101e+00 7.908850000000000158e+00 1.882999999999999952e-01 1.013963000000000036e+01 1.027927000000000035e+01 5.850000000000000165e-03 1.139099999999999974e-01 5.138329999999999842e+00 2.031499999999999972e-01 5.311530000000000307e+00 1.033477000000000068e+01 -4.146999999999999992e-02 5.179890000000000327e+00 5.136989999999999945e+00 2.302340000000000053e+00 2.428570000000000118e+00 5.097430000000000128e+00 2.733719999999999928e+00 2.799760000000000026e+00 7.890999999999999404e-02 2.538060000000000205e+00 7.771930000000000227e+00 5.450960000000000250e+00 2.632089999999999819e+00 7.601320000000000299e+00 1.057437000000000005e+01 8.866849999999999454e+00 4.063200000000000145e+00 5.705200000000000271e-01 8.284509999999999152e+00 4.336509999999999643e+00 6.109810000000000407e+00 8.791650000000000631e+00 9.201570000000000249e+00 1.014950000000000019e+00 8.926489999999999370e+00 9.314049999999999940e+00 6.232840000000000380e+00 3.525729999999999809e+00 7.488299999999999956e-01 4.439020000000000188e+00 3.991530000000000022e+00 1.522119999999999918e+00 9.808749999999999858e+00 3.800229999999999997e+00 6.811659999999999826e+00 3.845120000000000093e+00 4.279379999999999740e+00 6.542180000000000106e+00 9.716779999999999973e+00 3.629669999999999952e+00 3.611810000000000187e+00 3.719399999999999817e+00 3.966079999999999828e+00 4.034830000000000361e+00 9.173500000000000654e+00 3.752979999999999983e+00 9.365159999999999485e+00 6.106729999999999769e+00 3.808660000000000156e+00 9.076449999999999463e+00 9.094559999999999533e+00 8.654289999999999594e+00 1.746939999999999937e+00 1.883659999999999890e+00 8.632920000000000371e+00 1.635049999999999892e+00 7.039320000000000022e+00 8.969490000000000407e+00 6.500079999999999636e+00 1.295609999999999928e+00 8.927379999999999427e+00 6.840959999999999930e+00 6.830370000000000275e+00 9.124739999999999185e+00 4.111509999999999998e+00 3.291589999999999794e+00 9.453430000000000888e+00 4.348489999999999966e+00 8.658820000000000405e+00 9.466359999999999886e+00 9.565060000000000784e+00 3.338439999999999852e+00 8.960889999999999134e+00 9.132999999999999119e+00 8.788560000000000372e+00 3.766659999999999897e+00 1.334440000000000071e+00 1.680390000000000050e+00 3.264130000000000198e+00 1.805069999999999952e+00 7.056259999999999977e+00 3.809120000000000061e+00 8.727309999999999235e+00 1.228280000000000038e+00 3.817860000000000031e+00 6.460880000000000400e+00 6.838709999999999845e+00 1.262100000000000000e+00 1.266869999999999941e+00 3.618500000000000050e+00 1.255419999999999980e+00 1.280000000000000027e+00 8.896470000000000766e+00 1.437929999999999930e+00 6.262609999999999566e+00 3.765709999999999891e+00 1.811569999999999903e+00 6.368470000000000297e+00 9.070360000000000866e+00 6.154049999999999798e+00 1.089310000000000000e+00 1.118980000000000086e+00 6.132880000000000109e+00 1.632220000000000004e+00 6.375759999999999650e+00 6.410800000000000054e+00 6.142299999999999649e+00 1.120209999999999928e+00 6.227020000000000444e+00 6.386330000000000062e+00 6.037880000000000358e+00 6.504979999999999762e+00 1.398509999999999920e+00 3.865779999999999994e+00 6.405540000000000234e+00 1.200560000000000072e+00 8.968560000000000088e+00 6.410319999999999574e+00 6.182669999999999888e+00 3.595689999999999831e+00 6.800760000000000360e+00 6.460280000000000022e+00 8.780770000000000408e+00 6.234930000000000305e+00 3.844129999999999825e+00 1.536620000000000097e+00 5.961689999999999934e+00 4.268229999999999968e+00 6.886879999999999669e+00 6.439420000000000144e+00 8.666560000000000485e+00 1.219039999999999901e+00 6.297760000000000247e+00 9.100030000000000285e+00 6.828409999999999869e+00 9.031129999999999214e+00 1.615499999999999936e+00 4.863949999999999996e+00 9.012000000000000455e+00 1.373119999999999896e+00 9.532679999999999154e+00 8.939120000000000843e+00 7.019330000000000069e+00 3.941990000000000105e+00 9.412490000000000023e+00 6.806219999999999715e+00 9.521029999999999660e+00 6.085549999999999571e+00 3.740000000000000213e+00 4.141479999999999606e+00 6.710340000000000416e+00 3.900430000000000064e+00 9.576060000000000016e+00 6.630600000000000271e+00 8.931979999999999364e+00 4.265489999999999782e+00 6.253730000000000011e+00 8.789080000000000226e+00 9.481270000000000309e+00 1.304750000000000076e+00 1.612279999999999935e+00 8.889200000000000434e-01 1.090030000000000054e+00 1.374139999999999917e+00 6.420600000000000307e+00 1.468609999999999971e+00 6.513080000000000425e+00 1.249230000000000063e+00 1.288319999999999910e+00 6.492049999999999876e+00 6.396130000000000315e+00 1.007849999999999913e+00 3.573550000000000004e+00 4.105489999999999640e+00 1.428439999999999932e+00 3.764100000000000001e+00 9.319879999999999498e+00 1.427999999999999936e+00 8.877090000000000813e+00 4.254369999999999763e+00 1.424879999999999924e+00 8.841530000000000555e+00 9.305999999999999162e+00 1.347339999999999982e+00 4.198570000000000135e+00 1.425300000000000011e+00 1.037660000000000027e+00 3.998819999999999819e+00 6.729119999999999990e+00 1.216120000000000090e+00 9.309559999999999391e+00 1.422779999999999934e+00 1.364540000000000086e+00 8.805870000000000530e+00 6.777199999999999669e+00
2.625160000000000160e+00 1.007155000000000022e+01 2.511760000000000215e+00 2.663159999999999972e+00 1.055699999999999972e-01 7.775109999999999744e+00 2.837050000000000072e+00 4.956579999999999764e+00 2.363360000000000127e+00 2.703139999999999876e+00 5.246920000000000250e+00 7.946270000000000167e+00 1.017056999999999967e+01 2.630479999999999929e+00 2.637599999999999945e+00 1.014489000000000019e+01 2.825829999999999842e+00 7.936250000000000249e+00 2.813800000000000190e-01 7.495020000000000238e+00 2.701090000000000213e+00 1.000833000000000084e+01 7.871800000000000352e+00 7.823929999999999829e+00 7.707559999999999967e+00 2.815290000000000070e+00 5.378470000000000084e+00 7.852420000000000400e+00 2.543470000000000120e+00 1.054715000000000025e+01 7.824650000000000105e+00 7.886610000000000120e+00 5.202510000000000190e+00 7.448780000000000179e+00 8.135450000000000514e+00 1.044475000000000087e+01 5.070859999999999701e+00 6.511999999999999733e-02 2.052100000000000035e-01 5.490579999999999572e+00 1.006044999999999945e+01 4.919080000000000119e+00 5.259190000000000254e+00 5.359040000000000248e+00 1.054335000000000022e+01 4.970290000000000319e+00 5.153089999999999726e+00 5.147050000000000125e+00 5.260169999999999568e+00 2.639390000000000125e+00 2.657459999999999933e+00 5.171509999999999607e+00 2.811360000000000081e+00 7.888790000000000191e+00 5.395330000000000403e+00 7.792329999999999757e+00 2.397009999999999863e+00 5.143720000000000070e+00 7.954889999999999795e+00 8.183080000000000354e+00 8.024119999999999919e+00 1.017375000000000007e+01 2.523559999999999803e+00 7.757869999999999600e+00 2.996400000000000174e-01 7.912200000000000344e+00 7.653970000000000162e+00 5.353939999999999699e+00 2.638999999999999790e+00 7.871000000000000441e+00 5.249089999999999812e+00 8.095169999999999533e+00 1.923999999999999877e-01 1.028545000000000087e+01 1.042684999999999995e+01 1.625199999999999978e-01 1.022114999999999974e+01 5.305760000000000254e+00 1.023300000000000043e-01 5.290650000000000297e+00 1.046354999999999968e+01 2.592200000000000060e-01 5.352219999999999978e+00 5.052649999999999864e+00 2.730199999999999960e+00 2.238770000000000149e+00 5.146499999999999631e+00 2.798620000000000108e+00 2.677639999999999798e+00 4.082999999999999824e-02 3.073440000000000172e+00 7.912969999999999615e+00 5.289729999999999599e+00 2.481219999999999981e+00 7.953949999999999854e+00 1.032404999999999973e+01 9.168929999999999580e+00 3.623610000000000220e+00 9.921100000000000474e-01 8.801729999999999166e+00 4.045609999999999928e+00 6.489309999999999690e+00 8.716089999999999449e+00 9.060890000000000555e+00 1.042359999999999953e+00 9.171160000000000423e+00 8.988730000000000331e+00 6.326859999999999928e+00 4.351469999999999949e+00 1.500310000000000032e+00 4.322149999999999714e+00 4.400420000000000442e+00 1.659380000000000077e+00 9.639889999999999404e+00 3.958429999999999893e+00 6.480819999999999581e+00 4.078500000000000014e+00 4.146989999999999732e+00 6.493299999999999628e+00 9.475210000000000576e+00 3.698989999999999778e+00 3.745309999999999917e+00 3.579819999999999780e+00 4.175200000000000244e+00 4.185819999999999652e+00 8.907690000000000552e+00 3.925469999999999793e+00 9.288130000000000663e+00 3.811640000000000139e+00 3.703199999999999825e+00 9.319380000000000663e+00 9.277960000000000207e+00 9.202890000000000015e+00 1.143510000000000026e+00 1.741749999999999909e+00 9.384930000000000661e+00 1.196849999999999969e+00 6.951089999999999769e+00 9.146300000000000097e+00 6.159430000000000405e+00 1.789979999999999905e+00 8.933830000000000382e+00 6.458429999999999893e+00 6.866520000000000401e+00 8.782840000000000202e+00 3.985090000000000021e+00 3.699320000000000164e+00 9.190720000000000667e+00 4.044240000000000279e+00 9.197060000000000457e+00 9.451999999999999957e+00 9.086140000000000327e+00 3.564849999999999852e+00 8.698249999999999815e+00 9.095269999999999300e+00 9.109989999999999810e+00 3.920450000000000212e+00 1.222609999999999975e+00 1.755980000000000096e+00 4.077919999999999767e+00 1.205449999999999910e+00 6.980170000000000208e+00 4.708719999999999573e+00 5.983130000000000059e+00 1.681999999999999940e+00 4.424080000000000013e+00 6.214970000000000105e+00 6.849009999999999820e+00 1.518389999999999906e+00 1.075129999999999919e+00 3.701799999999999979e+00 1.858109999999999928e+00 1.657319999999999904e+00 8.770189999999999486e+00 1.324400000000000022e+00 5.929170000000000051e+00 3.340129999999999821e+00 1.229649999999999910e+00 6.847039999999999793e+00 8.738419999999999632e+00 6.510209999999999830e+00 1.078040000000000109e+00 3.082879999999999843e+00 6.660989999999999966e+00 1.436569999999999903e+00 6.082580000000000098e+00 6.674549999999999983e+00 6.373409999999999798e+00 4.092880000000000074e+00 6.636370000000000324e+00 6.589339999999999975e+00 8.986380000000000479e+00 6.467010000000000147e+00 3.813959999999999795e+00 1.443589999999999929e+00 6.182629999999999626e+00 4.220690000000000275e+00 6.655990000000000073e+00 6.875110000000000277e+00 7.051899999999999835e-01 4.796400000000000108e-01 6.702740000000000364e+00 8.536720000000000752e+00 6.711809999999999832e+00 9.001659999999999329e+00 1.330030000000000046e+00 4.543420000000000236e+00 9.261490000000000222e+00 1.378139999999999921e+00 9.403240000000000265e+00 9.383539999999999992e+00 6.832659999999999734e+00 4.326600000000000001e+00 9.059010000000000673e+00 6.548879999999999590e+00 9.490729999999999222e+00 6.282969999999999722e+00 3.713039999999999896e+00 4.127089999999999925e+00 6.582670000000000243e+00 3.842680000000000096e+00 9.423099999999999810e+00 6.683980000000000032e+00 8.750159999999999272e+00 3.541840000000000099e+00 6.353309999999999569e+00 9.391049999999999898e+00 9.122889999999999944e+00 1.452609999999999957e+00 1.114659999999999984e+00 7.730000000000000204e-01 1.774680000000000035e+00 8.558799999999999741e-01 6.106550000000000367e+00 1.617760000000000087e+00 6.329439999999999955e+00 8.102200000000000513e-01 1.838049999999999962e+00 6.374170000000000336e+00 5.794699999999999740e+00 1.066969999999999974e+00 3.540900000000000158e+00 4.417919999999999625e+00 1.446469999999999922e+00 3.947960000000000136e+00 9.641569999999999752e+00 1.678199999999999914e+00 8.627800000000000580e+00 4.004870000000000374e+00 1.132710000000000106e+00 9.172439999999999927e+00 9.175470000000000681e+00 1.535390000000000033e+00 3.601360000000000117e+00 1.859860000000000069e+00 1.259430000000000049e+00 4.145450000000000301e+00 7.273959999999999759e+00 1.147159999999999958e+00 8.929429999999999978e+00 1.263360000000000039e+00 1.565369999999999928e+00 8.769600000000000506e+00 6.667570000000000441e+00 4.060850000000000293e+00 3.731520000000000170e+00 9.453300000000000036e-01 3.639959999999999862e+00 4.115009999999999835e+00 6.189440000000000275e+00 3.885520000000000085e+00 8.481479999999999464e+00 9.850100000000000522e-01 4.312549999999999883e+00 9.054249999999999687e+00 6.354969999999999786e+00