6.994499999999999329e-02 -4.142208000000000112e+00 -3.992418999999999940e+00 1.002412000000000081e+00 2.257575000000000109e+00 2.109080000000000121e-01 -6.573959999999999804e-01 1.046760000000000052e-01 1.178539999999999921e+00 -4.782487999999999850e+00 4.138956000000000301e+00 -1.761519999999999975e+00 1.019217999999999957e+00 -4.206529999999999991e-01 -8.338020000000000431e-01 2.113274000000000097e+00 -2.269032000000000160e+00 -1.994957000000000091e+00 -2.631693999999999978e+00 -2.479979999999999962e-01 -2.569310000000000205e-01 -1.613771000000000067e+00 -1.494749999999999968e-01 2.853807000000000205e+00 -3.734433999999999809e+00 -1.375755999999999979e+00 1.215931000000000095e+00 -1.235257000000000049e+00 -1.603167000000000009e+00 -1.069930999999999965e+00 -1.470560000000000089e+00 1.061927999999999983e+00 -4.281418999999999642e+00 2.375954999999999817e+00 -4.487789999999999835e-01 1.023273000000000099e+00 1.448283999999999905e+00 -1.909815000000000040e+00 -3.156423999999999896e+00 1.408055000000000057e+00 -1.629513999999999907e+00 3.960890000000000022e+00 3.491420000000000079e-01 2.149369999999999892e-01 -1.677872000000000030e+00 -6.103100000000000191e-02 1.655426000000000064e+00 -7.458909999999999707e-01 2.366899000000000086e+00 1.522086999999999968e+00 1.656952999999999898e+00 2.498509999999999898e-01 2.148655999999999899e+00 -4.158729999999999927e-01 3.410648000000000124e+00 1.486869999999999914e+00 3.769241000000000064e+00 2.957777000000000100e+00 2.386518999999999835e+00 -2.283462999999999798e+00 6.138909999999999645e-01 -1.718666999999999945e+00 2.052353000000000094e+00 -1.200247999999999982e+00 5.233399999999999858e-02 2.341704000000000008e+00 2.644489999999999896e-01 -5.819830000000000281e-01 -6.826769999999999783e-01 -1.218158999999999992e+00 -1.731813999999999965e+00 1.435815000000000063e+00 -3.015280000000000182e+00 -2.916401000000000021e+00 2.242573999999999845e+00 1.548864999999999936e+00 1.363698000000000077e+00 1.615030000000000077e-01 -4.729320000000000190e-01 1.887291000000000052e+00 1.357339999999999991e+00 1.847885999999999918e+00 1.394352000000000036e+00 -2.012528000000000095e+00 -7.910319999999999574e-01 8.483829999999999982e-01 1.110241000000000033e+00 -1.719030999999999976e+00 5.285299999999999720e-02 -8.530410000000000492e-01 -5.565409999999999524e-01 -2.008121000000000045e+00 -2.565869999999999873e+00 -4.325340999999999880e+00 -6.158439999999999470e-01 -9.146020000000000261e-01 -3.873770000000000269e-01 2.127038999999999902e+00 2.537619999999999876e-01 -1.019700000000000051e+00 -5.299760000000000026e-01 -1.590985000000000094e+00 2.737089999999999801e+00 9.956500000000000350e-01 -3.502428999999999792e+00 1.569256999999999902e+00 7.678519999999999790e-01 -2.075845999999999858e+00 -2.570500000000000007e-01 1.666654999999999998e+00 7.143380000000000285e-01 1.438471999999999973e+00 1.748078000000000021e+00 5.414259999999999629e-01 -1.773946000000000023e+00 -3.681260000000000088e-01 1.877653000000000016e+00 2.107820999999999945e+00 -1.421291000000000082e+00 -1.326510000000000078e+00 -4.725190000000000223e-01 1.158638000000000057e+00 4.126719999999999833e-01 -5.297092000000000134e+00 -2.804629999999999956e+00 2.215485000000000149e+00 3.782630000000000159e-01 1.128149000000000068e+00 -1.073355999999999977e+00 -2.621966000000000019e+00 -3.795499999999999985e-01 2.343380999999999936e+00 9.522979999999999778e-01 5.308300000000000241e-01 1.743030999999999997e+00 -3.660184000000000104e+00 1.167116999999999960e+00 -1.236855999999999955e+00 8.315810000000000146e-01 7.399109999999999854e-01 1.139551999999999898e+00 1.514796000000000031e+00 -2.592519999999999825e-01 -1.789036000000000071e+00 5.802469999999999573e-01 1.146417000000000019e+00 -9.573460000000000303e-01 -2.715955999999999815e+00 1.048532000000000020e+00 1.873188999999999993e+00 4.239539999999999975e-01 8.186350000000000016e-01 3.896089999999999831e-01 1.853239999999999887e-01 1.500156000000000045e+00 -7.064209999999999656e-01 2.297718999999999845e+00 -2.965646000000000004e+00 -1.371250999999999998e+00 1.791995000000000005e+00 3.753423999999999872e+00 -1.416611999999999982e+00 1.659685000000000077e+00 2.625879999999999992e+00 1.372144999999999948e+00 1.999633999999999912e+00 3.245720000000000272e-01 -1.874010000000000120e-01 -2.471322999999999936e+00 -1.473891000000000062e+00 -1.094862999999999920e+00 3.182031999999999972e+00 -1.867933999999999983e+00 3.257689000000000057e+00 2.513377999999999890e+00 -1.573218999999999923e+00 -8.401459999999999484e-01 2.870530000000000026e-01 1.036775999999999920e+00 -1.618524999999999991e+00 1.155356000000000050e+00 -9.356830000000000425e-01 -2.039333000000000062e+00 -7.503060000000000285e-01 3.754779999999999784e-01 7.976790000000000269e-01 8.737019999999999786e-01 -3.275951000000000057e+00 2.722636000000000056e+00 -6.690859999999999586e-01 -2.466952000000000034e+00 6.420590000000000463e-01 -1.298044999999999893e+00 1.131458999999999993e+00 1.144044999999999979e+00 -4.526519999999999988e-01 1.847981000000000096e+00 7.446880000000000166e-01 -8.513150000000000439e-01 -7.262699999999999712e-02 3.917570000000000219e-01 1.933308999999999944e+00 3.567330999999999808e+00 3.851370000000000071e-01 2.004214000000000162e+00 -1.834827999999999903e+00 1.776628000000000096e+00 -4.805769999999999764e-01 -1.831550999999999929e+00 1.103529999999999900e+00 1.120460000000000012e+00 -1.928930000000000033e+00 3.590720000000000023e-01 -4.677404000000000117e+00 -3.310474000000000139e+00 -2.556395999999999891e+00 -1.233336999999999906e+00 -4.654420000000000224e-01 1.249293999999999905e+00 2.105615999999999932e+00 1.829428000000000054e+00 1.155930000000000013e-01 -1.318772999999999973e+00 -2.767679999999999918e+00 -2.869869999999999921e-01 -5.319120000000000514e-01 -2.129077999999999804e+00 -3.517910000000000204e-01 -1.788059000000000065e+00 2.492290000000000061e-01 1.824746999999999897e+00 -8.854109999999999481e-01 -6.073309999999999542e-01 1.959750000000000103e-01 9.937629999999999519e-01 -3.594481000000000037e+00 -1.185727999999999893e+00 -1.902857999999999938e+00 -1.291543000000000108e+00 8.321150000000000491e-01 -1.141558000000000073e+00 3.063460000000000072e-01 1.029390000000000027e-01 2.052645000000000053e+00 -6.596070000000000544e-01 9.918059999999999654e-01 1.460668999999999995e+00 2.272043000000000035e+00 -1.843329999999999969e-01 4.792879000000000111e+00 3.274131999999999820e+00 -1.545881999999999978e+00 -6.378859999999999530e-01 4.769970000000000043e-01 -2.242573000000000150e+00 1.522510999999999948e+00 -1.858524000000000065e+00 -5.897750000000000492e-01 1.757228000000000012e+00 1.068324999999999969e+00 -1.416250000000000009e-01 -8.118729999999999558e-01 2.862239999999999895e+00 -3.197450000000000014e-01 2.342100000000000085e-02 -2.322199999999999959e-02 -1.819860000000000089e-01 1.513968999999999898e+00 8.444249999999999812e-01 9.982590000000000074e-01 -1.958437999999999901e+00 9.357280000000000042e-01 -4.379469999999999752e-01 -1.255095000000000072e+00 -1.435351000000000043e+00 1.267943999999999960e+00
1.262653000000000025e+00 2.034750999999999976e+00 -1.097007999999999983e+00 8.477800000000000613e-02 -1.837922999999999973e+00 -2.845469999999999944e-01 -1.572220000000000006e-01 -2.615689999999999960e-01 -5.708860000000000046e-01 2.157658000000000076e+00 2.089596999999999927e+00 -2.754513999999999907e+00 -1.115024000000000015e+00 2.913972999999999924e+00 -1.043681999999999999e+00 1.464973000000000081e+00 -4.051727999999999774e+00 -1.933484999999999898e+00 4.293489999999999807e-01 -1.418380999999999892e+00 -1.521975999999999996e+00 1.567827000000000082e+00 4.261260000000000048e-01 2.065144000000000091e+00 -2.665919999999999956e-01 -3.398315999999999892e+00 5.473499999999999893e-02 -3.507740000000000080e+00 -1.074567000000000050e+00 4.982110000000000150e-01 -1.155983999999999901e+00 -1.294013999999999998e+00 2.065716999999999803e+00 -1.699896999999999991e+00 2.440942000000000167e+00 -6.567910000000000137e-01 -1.784510000000000041e+00 -5.943610000000000282e-01 -7.893970000000000153e-01 -1.734620000000000051e+00 -1.694738000000000078e+00 -9.973199999999999843e-01 -9.239859999999999740e-01 -3.285607000000000166e+00 2.138629999999999975e-01 -1.869005999999999945e+00 -3.066920999999999786e+00 -5.109229000000000021e+00 1.872023999999999910e+00 1.295382000000000033e+00 -4.056492000000000431e+00 -7.136320000000000441e-01 1.010340999999999934e+00 -8.008720000000000283e-01 1.510307999999999984e+00 -4.896499999999999742e-01 1.912752000000000008e+00 6.380580000000000140e-01 -9.824720000000000120e-01 2.168909999999999894e+00 7.412599999999999745e-02 2.451607999999999787e+00 9.552669999999999773e-01 2.941710000000000158e-01 5.485825000000000173e+00 2.405663999999999803e+00 -1.568921999999999928e+00 -7.643099999999999894e-02 -8.056969999999999965e-01 -2.742672999999999917e+00 -2.654002000000000194e+00 -3.555372999999999895e+00 -9.377349999999999852e-01 1.789219999999999977e-01 -1.626408999999999994e+00 -1.980811000000000099e+00 1.977878999999999943e+00 2.818766999999999801e+00 1.477921000000000040e+00 2.530740000000000212e-01 3.689569000000000099e+00 -1.293134000000000006e+00 -1.721651000000000042e+00 1.098702000000000067e+00 1.437309999999999977e-01 -4.399739999999999762e-01 -2.131339000000000095e+00 -9.202799999999999869e-02 -3.172317000000000053e+00 2.297480000000000189e+00 -2.336752000000000162e+00 4.982005000000000017e+00 -1.950485000000000024e+00 -2.797129999999999894e-01 -6.976799999999999669e-01 9.787310000000000176e-01 -2.931619999999999782e-01 -8.597510000000000430e-01 -9.794929999999999470e-01 5.922950000000000159e-01 -8.813149999999999595e-01 -7.450809999999999933e-01 8.661130000000000217e-01 1.415539000000000103e+00 -7.222830000000000084e-01 -2.411619999999999875e-01 -4.751310000000000255e-01 -1.088859999999999939e+00 -2.574092999999999964e+00 -1.183945000000000025e+00 1.301128000000000062e+00 -4.238852999999999760e+00 2.245512999999999870e+00 -3.091978999999999811e+00 -2.788900000000000060e-02 3.712300000000000044e-01 -1.613070000000000004e+00 -7.860780000000000545e-01 8.763710000000000111e-01 2.407176999999999900e+00 1.009400000000000075e+00 -7.763130000000000308e-01 -7.839000000000000482e-03 -1.290672000000000041e+00 5.999419999999999753e-01 -2.411373000000000211e+00 -1.129704999999999959e+00 -2.425750000000000128e-01 -5.843500000000000083e-02 -3.710789999999999811e+00 -3.169197000000000042e+00 -3.241700000000000137e-02 1.424655000000000005e+00 4.629420000000000202e-01 2.621709999999999874e-01 1.808127999999999957e+00 -2.829544999999999977e+00 -8.256850000000000023e-01 2.123496999999999968e+00 2.365930999999999784e+00 1.506898999999999988e+00 3.339360000000000106e-01 5.954509999999999525e-01 6.805440000000000378e-01 -1.856422000000000017e+00 2.517052000000000067e+00 8.330950000000000299e-01 1.471041999999999961e+00 1.575471000000000066e+00 -1.608818999999999999e+00 -7.639390000000000347e-01 -9.996840000000000170e-01 -1.385210000000000052e-01 4.242226999999999748e+00 -1.439573999999999909e+00 -6.747490000000000432e-01 2.025786000000000087e+00 1.748434000000000044e+00 1.628683000000000103e+00 -8.366759999999999753e-01 5.074400000000000022e-01 2.533847999999999878e+00 -3.388508999999999993e+00 -2.488488999999999951e+00 1.220321999999999907e+00 1.035171000000000063e+00 -3.778643999999999892e+00 8.064780000000000282e-01 1.249540000000000095e+00 1.101747000000000032e+00 -1.359577000000000035e+00 -5.794999999999999804e-03 1.454139000000000070e+00 2.018775999999999904e+00 -9.316219999999999501e-01 1.397909000000000068e+00 -9.034999999999999629e-03 2.521921999999999997e+00 1.336438999999999933e+00 -1.652177000000000007e+00 -1.553692999999999991e+00 -7.891860000000000541e-01 3.083960000000000035e-01 4.458573999999999593e+00 4.860300000000000037e-02 5.168439999999999701e-01 4.533451000000000342e+00 1.706479000000000079e+00 1.687294000000000072e+00 -8.007560000000000233e-01 -2.183450000000000113e-01 5.551000000000000378e-01 2.019799999999999929e-01 -1.101633000000000084e+00 -1.110251000000000099e+00 -5.900199999999999889e-02 1.792240000000000055e+00 1.574243999999999977e+00 -7.026649999999999840e-01 -2.387065999999999910e+00 3.439686000000000021e+00 -4.170691999999999844e+00 1.203770000000000007e+00 -2.610905999999999949e+00 2.717181000000000068e+00 -5.141059999999999519e-01 -3.074060000000000126e-01 -4.226300000000000195e-02 7.664969999999999839e-01 2.453183999999999809e+00 7.310849999999999849e-01 6.202640000000000375e-01 3.223500000000000254e-01 3.705550000000000122e+00 2.531760000000000121e-01 3.313666000000000000e+00 2.936759999999999926e-01 -6.316589999999999705e-01 1.069959000000000104e+00 7.875100000000000433e-01 3.865850000000000120e-01 -3.016969999999999930e-01 -1.208264999999999922e+00 -6.187749999999999639e-01 -3.047849999999999726e-01 3.447537000000000074e+00 8.781510000000000149e-01 -2.843179999999999819e+00 7.356799999999999451e-02 -1.503460999999999936e+00 1.936150999999999955e+00 2.082690000000000097e-01 1.629955999999999960e+00 -1.176854999999999984e+00 -8.175750000000000517e-01 -2.840489999999999959e-01 6.544280000000000097e-01 2.165725000000000122e+00 -1.768829999999999902e+00 -1.271036000000000055e+00 -5.578269999999999618e-01 8.185240000000000293e-01 -8.842800000000000660e-02 -1.424954000000000054e+00 -6.779279999999999751e-01 2.497411000000000048e+00 1.812375999999999987e+00 -2.101322999999999830e+00 -2.026987999999999790e+00 -1.315099999999999936e+00 -4.865959999999999730e-01 -5.627750000000000252e-01 6.262339999999999574e-01 7.988720000000000265e-01 -1.662009999999999876e-01 1.780779999999999863e-01 1.423356999999999983e+00 1.598770000000000024e+00 8.082489999999999952e-01 1.227066999999999908e+00 -5.636470000000000091e-01 -4.386550000000000171e-01 -9.360610000000000319e-01 1.223441999999999918e+00 -5.634280000000000399e-01 1.428773999999999988e+00 1.181689999999999907e+00 1.031571999999999933e+00 4.350450000000000150e-01 8.437090000000000423e-01 1.797608000000000095e+00 1.389237999999999973e+00 -9.010399999999999521e-01 -1.369293000000000093e+00 4.369069999999999898e-01 -6.588680000000000092e-01
1.707186000000000092e+00 2.194672000000000178e+00 1.918182999999999971e+00 2.684719999999999884e-01 1.103760999999999992e+00 1.515433000000000030e+00 2.202271999999999785e+00 -1.760083999999999982e+00 -1.354081000000000090e+00 4.612780000000000213e-01 -3.528923999999999950e+00 -1.134941999999999895e+00 1.724512999999999963e+00 -4.580790000000000139e-01 -7.017130000000000312e-01 7.831770000000000120e-01 -1.547522000000000064e+00 -2.634543999999999997e+00 1.145825000000000093e+00 7.820719999999999894e-01 -1.172582999999999931e+00 -2.544003000000000014e+00 -2.541615000000000180e+00 6.637790000000000079e-01 -1.372222999999999971e+00 -5.281391000000000169e+00 -8.486949999999999772e-01 -5.595170000000000421e-01 -1.398336000000000023e+00 6.692709999999999493e-01 -2.160366999999999926e+00 -6.753299999999999859e-01 -2.626266999999999907e+00 1.804518999999999984e+00 -5.661370000000000013e-01 -2.719300000000000050e-01 1.698900999999999994e+00 1.084192000000000045e+00 1.521379999999999955e+00 -2.392338000000000076e+00 5.990630000000000122e-01 -7.916609999999999481e-01 -8.381269999999999554e-01 -2.933832000000000217e+00 7.731699999999999684e-02 -2.118907000000000096e+00 5.244999999999999662e-01 1.499489999999999990e+00 -1.624173000000000089e+00 -1.819253000000000009e+00 6.765400000000000580e-02 -1.754261999999999988e+00 -1.109336000000000100e+00 1.373520999999999992e+00 -8.738019999999999676e-01 -3.417350000000000110e-01 1.766680000000000028e+00 -2.207771999999999846e+00 -1.072032000000000096e+00 1.901013999999999982e+00 -2.133360999999999841e+00 1.047363000000000044e+00 -1.625415000000000054e+00 -2.135358000000000089e+00 4.086465999999999710e+00 7.698239999999999528e-01 -4.497920000000000251e-01 2.607740000000000058e-01 -3.239285000000000192e+00 1.078654000000000002e+00 2.818499999999999783e+00 1.893718999999999930e+00 -3.840319999999999845e-01 1.881607999999999947e+00 1.587817999999999952e+00 3.509024999999999839e+00 1.716965999999999992e+00 -9.889700000000000157e-01 -1.012712999999999974e+00 -2.414645999999999848e+00 1.697526000000000090e+00 1.941834000000000060e+00 -1.068700999999999901e+00 5.177899999999999864e-02 2.299849000000000032e+00 -3.144500000000000073e-01 1.064011999999999958e+00 7.055620000000000225e-01 -8.408189999999999831e-01 -4.373290000000000233e-01 1.824802000000000035e+00 -4.769100000000000006e-01 -1.898296999999999901e+00 2.257461000000000162e+00 -4.683099999999999763e-02 -3.603959999999999941e-01 5.858229999999999826e-01 -6.486690000000000511e-01 4.378529999999999922e-01 3.885952000000000073e+00 2.525438999999999989e+00 -1.148004000000000024e+00 6.189670000000000449e-01 -5.235980000000000079e-01 -1.589509000000000061e+00 -2.095810999999999868e+00 -1.373736999999999986e+00 8.906060000000000088e-01 1.209292999999999951e+00 1.760699000000000014e+00 -7.291029999999999456e-01 -7.742510000000000225e-01 6.751559999999999784e-01 -1.517273000000000094e+00 1.263077000000000005e+00 -5.525769999999999849e-01 6.278430000000000399e-01 -8.837800000000000100e-01 2.718497000000000163e+00 -6.705499999999999794e-01 -6.563499999999999890e-02 8.743870000000000253e-01 -1.191048000000000107e+00 -1.439570000000000016e-01 -9.059699999999999698e-02 -1.450984000000000052e+00 8.096799999999999831e-02 -1.960180999999999951e+00 1.732969999999999899e+00 -8.462079999999999602e-01 -2.038800000000000057e-01 -2.242716000000000154e+00 -8.761860000000000204e-01 -1.189786000000000010e+00 -9.469299999999999939e-02 -2.606530000000000236e-01 1.457557999999999909e+00 1.969003999999999976e+00 2.208920000000000050e-01 4.048780000000000157e-01 2.158976000000000006e+00 8.825640000000000152e-01 -1.774640999999999913e+00 9.183620000000000116e-01 -1.262551999999999897e+00 9.955540000000000500e-01 2.008790999999999993e+00 -2.724123000000000072e+00 9.383879999999999999e-01 -2.146369999999999945e-01 -1.261633000000000004e+00 -8.536110000000000086e-01 1.494219999999999993e-01 2.664350999999999914e+00 -1.595231000000000066e+00 1.637493000000000087e+00 -6.674919999999999742e-01 2.548520000000000230e-01 9.067669999999999897e-01 3.011744999999999894e+00 8.005179999999999518e-01 3.352370000000000072e-01 4.855500000000000094e-02 6.341109999999999802e-01 -2.332589999999999941e-01 5.217300000000000271e-01 1.295603000000000060e+00 2.060950000000000004e-01 -1.138500000000000068e-01 -2.049940000000000095e-01 -9.144590000000000218e-01 1.328263999999999889e+00 -2.904040999999999872e+00 9.816589999999999483e-01 -3.765817000000000192e+00 1.157413000000000025e+00 1.879084999999999894e+00 -2.044923999999999964e+00 8.261840000000000295e-01 4.696949999999999736e-01 2.274370999999999921e+00 1.207807999999999993e+00 3.284170000000000145e-01 -5.547860000000000014e-01 -3.730789999999999940e-01 -2.560870000000000091e-01 1.428252000000000077e+00 2.795954000000000050e+00 -1.442596999999999907e+00 1.799458999999999920e+00 3.798788000000000054e+00 1.780545999999999962e+00 -9.199899999999999745e-02 -1.260669999999999957e+00 -1.287487999999999966e+00 -3.206450000000000133e-01 1.649930000000000008e-01 4.855799999999999700e-02 -8.254299999999999971e-01 8.970110000000000028e-01 1.557599999999999957e-02 -5.924999999999999711e-03 4.096429999999999794e-01 4.972499999999999837e-02 1.843163000000000107e+00 -4.723890000000000033e-01 3.289000000000000257e-02 -1.371334000000000053e+00 -2.380660000000000220e+00 -7.498999999999999590e-03 -4.815280000000000116e-01 8.757040000000000379e-01 2.731128000000000000e+00 8.617899999999999450e-01 -4.242190000000000127e-01 -6.455619999999999692e-01 -8.698519999999999586e-01 1.140484999999999971e+00 -3.277775000000000105e+00 -6.888779999999999903e-01 1.132430999999999965e+00 1.579960999999999949e+00 -1.642599999999999894e-01 -1.437483000000000066e+00 1.589854000000000100e+00 -3.751269999999999882e-01 7.352840000000000487e-01 2.244430000000000036e-01 2.005069999999999908e+00 -7.598299999999999499e-02 2.977130000000000054e-01 -9.195999999999999730e-01 -5.564600000000000102e-02 -1.522574000000000094e+00 1.149194000000000049e+00 4.241360000000000130e-01 -1.355156000000000027e+00 6.050079999999999902e-01 -2.886899999999999883e-02 -2.125544000000000100e+00 -1.772439000000000098e+00 -3.648259999999999836e-01 1.875500000000000084e-02 -7.136479999999999491e-01 -1.486242999999999981e+00 -9.695599999999999774e-01 -3.147079999999999878e-01 1.983953999999999995e+00 -1.035932000000000075e+00 -9.271899999999999586e-01 -1.446687999999999974e+00 3.825330000000000119e-01 -6.016999999999999779e-03 2.310210999999999792e+00 1.353379000000000110e+00 6.044690000000000341e-01 8.542570000000000441e-01 1.011617999999999906e+00 1.654609999999999970e-01 -1.501560000000000117e-01 -1.510575999999999919e+00 -8.934800000000000519e-01 8.114550000000000374e-01 1.074975999999999932e+00 -1.050159999999999982e-01 -1.941200999999999954e+00 3.939900000000000346e-02 -1.625389999999999890e-01 3.570220000000000060e-01 -8.914969999999999839e-01 -1.009835000000000038e+00 -2.120487999999999928e+00 -1.069164999999999921e+00 4.501089999999999813e-01 2.771793000000000173e+00 -4.283770000000000078e-01
-2.421107000000000120e+00 7.863100000000000644e-02 -8.921339999999999826e-01 -1.491989000000000010e+00 3.962720000000000131e-01 2.019060000000000021e-01 3.589069999999999760e-01 2.874731000000000147e+00 5.844510000000000538e-01 8.663669999999999982e-01 6.892030000000000101e-01 -2.027967999999999993e+00 -6.224799999999999778e-02 9.916909999999999892e-01 2.429940999999999907e+00 1.809001000000000081e+00 -1.046068999999999916e+00 5.999970000000000026e-01 5.887109999999999843e-01 1.434271999999999991e+00 -1.085652999999999979e+00 6.641650000000000054e-01 1.070221000000000089e+00 1.336359999999999992e+00 1.008966000000000030e+00 1.801425999999999972e+00 -2.675326999999999789e+00 -1.147007000000000110e+00 9.622420000000000417e-01 -9.463700000000000445e-01 1.497699999999999865e-01 -6.628699999999999870e-02 -1.036726999999999954e+00 1.239240000000000064e-01 -1.126986000000000043e+00 5.760530000000000372e-01 -7.944080000000000030e-01 -1.795959000000000083e+00 -8.276489999999999680e-01 6.430759999999999810e-01 2.521888999999999825e+00 7.729549999999999477e-01 3.330325999999999897e+00 -2.505441999999999947e+00 7.802399999999999614e-02 5.181010000000000337e-01 -1.771905999999999981e+00 3.674379999999999868e-01 -6.169000000000000178e-02 9.192799999999999583e-02 5.543190000000000062e-01 1.151890999999999998e+00 -9.255659999999999998e-01 -3.156619999999999981e-01 -1.742504999999999971e+00 -1.572448000000000068e+00 -1.893477999999999994e+00 7.392459999999999587e-01 -7.883229999999999960e-01 -1.194236999999999993e+00 -6.213729999999999531e-01 -1.784983999999999904e+00 4.630119999999999791e-01 -1.403840000000000088e-01 2.349600000000000022e-01 -6.255070000000000352e-01 -1.760320000000000107e+00 -2.858811999999999909e+00 -1.423709999999999976e-01 -6.254999999999999449e-01 -1.571086999999999900e+00 3.197769999999999779e-01 -1.265840999999999994e+00 3.271000000000000296e-02 2.923684999999999867e+00 1.381494000000000000e+00 2.350750000000000062e-01 -1.632894999999999985e+00 -3.141550000000000176e-01 -2.706169999999999964e-01 1.866287999999999947e+00 2.381148000000000042e+00 -2.787764000000000131e+00 1.868918999999999997e+00 1.423000000000000098e-01 3.259460999999999942e+00 -4.482940000000000258e-01 -3.019572000000000145e+00 -4.320681999999999690e+00 -2.648147999999999946e+00 -2.961670999999999943e+00 -1.620973999999999915e+00 -3.179699999999999749e-01 -1.761779999999999902e+00 -5.967360000000000442e-01 -3.925219999999999820e-01 9.505280000000000395e-01 4.281220000000000026e-01 4.345120000000000093e-01 1.348935999999999913e+00 -7.717669999999999808e-01 1.117823000000000011e+00 1.117034000000000082e+00 -1.597183000000000019e+00 -1.600732999999999961e+00 -4.186540000000000261e-01 1.316769999999999885e-01 -7.671000000000000041e-02 3.584860000000000269e-01 -5.874679999999999902e-01 4.803000000000000047e-01 -1.295910000000000117e-01 8.472699999999999676e-01 3.924730000000000163e-01 -2.428929999999999978e-01 1.132308000000000092e+00 -6.004559999999999897e-01 -3.875443000000000193e+00 3.868654999999999955e+00 -9.061759999999999815e-01 1.050578000000000012e+00 -5.972000000000000225e-02 8.526660000000000350e-01 -1.791047000000000056e+00 -3.825459999999999972e-01 3.141939999999999733e-01 2.709379000000000204e+00 -7.455530000000000213e-01 -3.681450000000000000e-01 1.447478999999999960e+00 -1.311196999999999946e+00 -1.298634000000000066e+00 9.092379999999999907e-01 1.713775000000000048e+00 -1.467225000000000001e+00 -1.984809999999999908e-01 6.412199999999999844e-02 1.797950000000000104e-01 1.623067999999999955e+00 9.874330000000000052e-01 -1.608209999999999917e+00 -2.750029999999999974e-01 5.838510000000000089e-01 -7.984229999999999938e-01 8.261359999999999815e-01 -6.568999999999999839e-02 -2.934640000000000026e-01 -1.621906999999999988e+00 -1.018600000000000061e-02 -1.418091999999999908e+00 -1.059256999999999893e+00 1.057482000000000033e+00 1.178395999999999999e+00 2.120708000000000037e+00 7.203199999999999881e-02 -2.032919999999999838e+00 5.345609999999999529e-01 -9.693249999999999922e-01 -1.327228999999999992e+00 1.103283000000000014e+00 2.438061999999999951e+00 -1.184169999999999945e-01 -1.430587999999999971e+00 4.751999999999999974e-02 9.548870000000000413e-01 -3.493299999999999877e-02 3.353292999999999857e+00 8.290990000000000304e-01 -5.118999999999999939e-02 3.453660000000000063e-01 -1.306302999999999992e+00 -1.037625999999999937e+00 -4.417079999999999895e-01 -7.164939999999999642e-01 4.866600000000000092e-02 -3.062790000000000235e-01 4.703100000000000336e-02 3.661855000000000082e+00 -3.418493999999999922e+00 6.347660000000000524e-01 -1.876298999999999939e+00 1.553652999999999951e+00 1.273725999999999914e+00 -1.809312000000000031e+00 -3.615393000000000079e+00 1.719268999999999936e+00 5.756700000000000012e-02 -2.432350000000000068e-01 4.713049999999999740e-01 -1.398657999999999957e+00 9.685820000000000540e-01 -3.850979999999999959e-01 1.583628000000000036e+00 6.984300000000000230e-02 4.849720000000000142e-01 1.827296000000000031e+00 -1.812739999999999907e-01 1.281568999999999958e+00 8.330579999999999652e-01 2.034132000000000051e+00 2.940789999999999793e-01 -7.486800000000000122e-01 1.819700000000000137e-02 -6.816600000000000437e-02 -3.481110000000000038e-01 9.838249999999999496e-01 -1.655761000000000038e+00 -1.565406000000000075e+00 1.367105000000000015e+00 2.522780000000000022e-01 -1.140444000000000013e+00 -4.986510000000000109e-01 -9.354899999999999327e-02 -5.829689999999999594e-01 1.603529999999999955e-01 1.460889999999999966e-01 -4.503639999999999866e-01 6.599099999999999411e-02 1.514250000000000040e-01 4.096290000000000209e-01 3.544300000000000228e-01 2.345830000000000137e-01 9.484829999999999650e-01 1.268917999999999990e+00 2.695180000000000131e+00 -1.304146999999999945e+00 2.109169999999999934e-01 2.476460000000000050e-01 1.524915000000000020e+00 7.873250000000000526e-01 3.314429999999999876e-01 -1.405404000000000098e+00 6.769849999999999479e-01 1.622399999999999884e-02 5.791699999999999626e-01 -4.270639999999999992e-01 1.126199999999999944e-02 -1.027895000000000003e+00 -1.124290999999999929e+00 1.412452999999999959e+00 2.138929999999999998e-01 -7.413349999999999662e-01 8.689170000000000504e-01 8.124400000000000510e-01 1.741862999999999939e+00 1.248806000000000083e+00 -7.339020000000000543e-01 1.178249999999999992e-01 -1.169570999999999916e+00 1.103847999999999940e+00 1.512799999999999978e-01 -1.327949999999999964e-01 6.134060000000000068e-01 -4.751540000000000208e-01 -2.203332000000000068e+00 -8.508459999999999912e-01 -2.331199999999999939e-01 -1.895172000000000079e+00 1.605253999999999959e+00 -1.003001000000000031e+00 7.226129999999999498e-01 5.432800000000000129e-02 2.677180000000000115e-01 9.865610000000000213e-01 8.205719999999999681e-01 1.855048000000000030e+00 1.159629999999999939e+00 -1.431858999999999993e+00 -3.125745999999999913e+00 4.768859999999999766e-01 2.328979999999999939e-01 1.641604000000000063e+00 2.403777999999999970e+00 1.447489999999999888e-01 -2.952509999999999857e-01 1.394227000000000105e+00