-9.245105692500000032e+02
-9.196685488299999633e+02
-9.376603129600000557e+02
-9.397172601800000393e+02
-9.240970032499999434e+02
-9.108747948799999676e+02
-9.326921812900000077e+02
-9.271338002500000357e+02
-9.320921130499999663e+02
-9.153487614299999677e+02
-9.323414944800000512e+02
-9.200057256600000528e+02
-9.520886720900000455e+02
-9.127938345000000027e+02
-9.354570075899999892e+02
-9.246879269400000112e+02
-9.136899842799999760e+02
-9.134499397099999669e+02
-9.247268345100000033e+02
-9.160682620300000281e+02
-9.133241485600000260e+02
-9.236037960099999964e+02
-9.323941354999999476e+02
-9.322328372800000125e+02
-9.293312627999999904e+02
-9.278895024099999773e+02
-9.228042687099999739e+02
-9.221693456799999922e+02
-9.298219537700000501e+02
-9.202373014600000261e+02
-9.140042161000000078e+02
-9.451395865299999741e+02
-9.239504424599999766e+02
-9.277143753000000288e+02
-9.208025143400000161e+02
-9.157088931399999865e+02
-9.543506698500000311e+02
-9.452982058899999629e+02
-9.394528353700000025e+02
-9.313670332000000371e+02
-9.399752248999999438e+02
-9.203542104599999902e+02
-9.246447545500000160e+02
-9.404276347100000066e+02
-9.146812128200000416e+02
-9.257422145100000535e+02
-9.394917319099999986e+02
-9.108101921799999445e+02
-9.157132420799999863e+02
-9.298218752400000540e+02
