-8.879762251600000127e+02
-8.923775925899999493e+02
-9.164709610099999963e+02
-8.926394122399999560e+02
-8.918224263700000165e+02
-9.094620970400000033e+02
-9.068477893900000026e+02
-9.094123107699999764e+02
-9.085935202499999832e+02
-8.920634387400000378e+02
-9.075580341999999519e+02
-8.968541324599999598e+02
-9.107826627299999700e+02
-8.991553915499999903e+02
-8.963929985500000157e+02
-9.169588939799999707e+02
-8.917442396000000144e+02
-9.039665036699999519e+02
-8.930016196999999920e+02
-9.032892677600000297e+02
-9.093229213399999935e+02
-9.060997908900000084e+02
-8.865903390299999955e+02
-8.918802939500000093e+02
-9.124781473499999720e+02
-8.856323300400000562e+02
-9.013858742800000527e+02
-8.978675393099999837e+02
-8.855887973000000102e+02
-9.174566590199999609e+02
-9.023106448600000249e+02
-9.090908586499999728e+02
-9.030890960000000405e+02
-9.015379551700000320e+02
-8.941729536200000439e+02
-8.945084767399999919e+02
-9.073718832099999645e+02
-8.971196105400000533e+02
-9.090580335900000364e+02
-8.988811456700000235e+02
-9.044673076899999842e+02
-8.922303768699999864e+02
-9.134766675299999861e+02
-9.172994666900000311e+02
-9.117072163100000353e+02
-9.047246512399999574e+02
-8.927827195600000323e+02
-9.136095480799999677e+02
-8.869628128900000092e+02
-8.877026748399999860e+02
