-9.441602913200000557e+02
-9.240757484800000157e+02
-9.148959632099999908e+02
-9.154254011000000446e+02
-9.409676229200000535e+02
-9.327307040499999857e+02
-9.397386149999999816e+02
-9.385307705300000407e+02
-9.361761909099999457e+02
-9.395044163899999603e+02
-9.143810190599999714e+02
-9.388284631699999636e+02
-9.304693717599999445e+02
-9.174787937600000305e+02
-9.347796253499999466e+02
-9.376646781800000099e+02
-9.153192522099999451e+02
-9.357481183899999451e+02
-9.402019336900000326e+02
-9.360046024299999772e+02
-9.370575555100000429e+02
-9.376482844900000373e+02
-9.340338896099999602e+02
-9.361513578599999619e+02
-9.376121323300000086e+02
-9.121943169700000453e+02
-9.387131851499999584e+02
-9.208864358199999742e+02
-9.399673666400000229e+02
-9.192323198799999773e+02
-9.392848918099999764e+02
-9.397541398199999776e+02
-9.385712389300000495e+02
-9.443130801400000109e+02
-9.343427321299999448e+02
-9.099246286899999632e+02
-9.185049955399999817e+02
-9.374528239700000540e+02
-9.164676012300000139e+02
-9.406905171199999813e+02
-9.177738737399999991e+02
-9.172626993699999502e+02
-9.383731874500000458e+02
-9.280552402800000209e+02
-9.137772271799999544e+02
-9.120709898999999723e+02
-9.148285533499999929e+02
-9.101776062699999557e+02
-9.303630582099999629e+02
-9.166446009700000559e+02
-9.370911558499999501e+02
-9.261990144699999519e+02
-9.391794671000000108e+02
-9.203297005199999603e+02
-9.331988097199999856e+02
-9.338875095900000360e+02
-9.303571478300000308e+02
-9.297972792299999583e+02
-9.410017641800000092e+02
-9.251534841500000539e+02
-9.192766248299999461e+02
-9.357678882799999656e+02
-9.271991107999999713e+02
-9.386457242999999835e+02
-9.081279114799999661e+02
-9.203623645400000441e+02
-9.359489287300000342e+02
-9.374615409900000031e+02
-9.380339453799999774e+02
-9.327809286100000463e+02
-9.361343648199999734e+02
-9.111307697800000369e+02
-9.191754988999999796e+02
-9.289869587599999932e+02
-9.121721449399999528e+02
-9.037876990400000068e+02
-9.311567144399999734e+02
-9.144076500700000452e+02
-9.090146602800000437e+02
-9.206419495999999754e+02
-9.208409786500000109e+02
-9.156207769100000178e+02
-9.245262760599999865e+02
-9.303021771400000262e+02
-9.377806719899999734e+02
-9.121912459100000206e+02
-9.400213231699999596e+02
-9.162603653999999551e+02
-9.234724564199999577e+02
-9.171056980399999929e+02
-9.341577339100000472e+02
-9.332127604199999951e+02
-9.146941828999999871e+02
-9.258951973700000053e+02
-9.100759252300000526e+02
-9.110027381999999534e+02
-9.201917238900000484e+02
-9.233035996400000158e+02
-9.378902382300000227e+02
-9.165411658299999544e+02
