4.630180000000000184e+00 3.003390000000000004e+00 2.341400000000000148e+00 3.955340000000000078e+00 3.179390000000000160e+00 8.145379999999999399e+00 4.511510000000000353e+00 8.349539999999999296e+00 2.824879999999999836e+00 3.908630000000000049e+00 8.266310000000000713e+00 8.144700000000000273e+00 9.862059999999999604e+00 3.146809999999999885e+00 2.831449999999999800e+00 9.100799999999999557e+00 2.814189999999999969e+00 7.778380000000000294e+00 -3.371899999999999897e-01 8.300570000000000448e+00 2.834950000000000081e+00 -1.328559999999999963e+00 8.422850000000000392e+00 7.978349999999999831e+00 1.840300000000000047e+00 3.938800000000000079e-01 3.331939999999999902e+00 1.034350000000000103e+00 3.218300000000000050e-01 8.318270000000000053e+00 1.726890000000000036e+00 5.495910000000000295e+00 3.094269999999999854e+00 9.113900000000000334e-01 5.897549999999999848e+00 8.733499999999999375e+00 7.058880000000000265e+00 8.694999999999999951e-02 3.006219999999999892e+00 5.998219999999999885e+00 4.895499999999999852e-01 8.125170000000000670e+00 6.860170000000000101e+00 5.785759999999999792e+00 3.048820000000000086e+00 6.418689999999999785e+00 5.475399999999999601e+00 8.609090000000000131e+00 2.191479999999999873e+00 2.886060000000000070e+00 3.962999999999999856e-01 1.494340000000000002e+00 2.648769999999999847e+00 6.097389999999999866e+00 2.327729999999999855e+00 8.535119999999999152e+00 4.185599999999999876e-01 1.274410000000000043e+00 8.058600000000000207e+00 5.935660000000000380e+00 7.687999999999999723e+00 2.795760000000000023e+00 5.941300000000000470e-01 6.777269999999999683e+00 2.719289999999999985e+00 5.534180000000000099e+00 7.652619999999999756e+00 8.090049999999999741e+00 6.330299999999999816e-01 6.797789999999999999e+00 7.813850000000000406e+00 5.978769999999999918e+00 4.404740000000000322e+00 -4.910000000000000302e-03 5.279580000000000162e+00 3.226770000000000138e+00 5.819999999999999653e-03 1.051248999999999967e+01 4.008359999999999701e+00 5.607009999999999827e+00 5.399630000000000152e+00 3.430169999999999941e+00 5.401939999999999742e+00 1.071448999999999963e+01 9.560380000000000322e+00 1.058403999999999989e+01 5.215090000000000003e+00 1.043036999999999992e+01 1.058100000000000013e-01 6.590999999999999637e-02 9.459250000000000824e+00 5.408830000000000027e+00 5.224470000000000169e+00 1.362400000000000000e-01 5.392839999999999634e+00 2.329000000000000167e-02 3.443420000000000147e+00 4.716149999999999842e+00 3.528309999999999835e+00 2.876389999999999780e+00 4.250539999999999985e+00 8.898149999999999338e+00 3.485689999999999955e+00 9.988369999999999749e+00 3.277060000000000084e+00 2.479319999999999968e+00 9.755900000000000460e+00 8.836199999999999832e+00 8.620269999999999655e+00 4.410339999999999705e+00 3.334459999999999980e+00 7.976689999999999614e+00 4.558539999999999814e+00 8.640589999999999549e+00 9.218959999999999155e+00 1.003218000000000032e+01 3.378130000000000077e+00 3.137059999999999960e+00 1.568880000000000052e+00 1.836999999999999966e+00 2.405759999999999899e+00 1.565739999999999910e+00 7.363089999999999691e+00 2.883280000000000065e+00 7.476720000000000255e+00 2.388440000000000119e+00 2.442709999999999937e+00 6.899610000000000021e+00 7.400879999999999903e+00 8.263769999999999172e+00 1.833700000000000108e+00 2.082809999999999828e+00 7.461280000000000356e+00 1.542990000000000084e+00 7.370020000000000238e+00 8.339159999999999684e+00 7.205090000000000217e+00 2.486310000000000020e+00 7.571670000000000122e+00 7.091890000000000249e+00 7.548919999999999852e+00 3.021339999999999915e+00 1.353550000000000031e+00 4.575689999999999813e+00 1.274990000000000068e+00 1.336090000000000000e+00 9.895640000000000214e+00 2.311669999999999892e+00 6.594269999999999854e+00 4.960829999999999629e+00 1.815260000000000096e+00 6.426619999999999777e+00 1.027318999999999960e+01 8.145699999999999719e+00 1.430339999999999945e+00 4.577350000000000030e+00 6.899460000000000370e+00 1.072820000000000107e+00 1.030228999999999928e+01 7.877710000000000434e+00 6.540189999999999948e+00 4.818480000000000096e+00 6.825829999999999842e+00 6.535029999999999895e+00 1.047789000000000037e+01 3.908409999999999940e+00 4.078280000000000349e+00 7.867300000000000404e-01 2.988140000000000018e+00 3.956669999999999909e+00 5.784740000000000215e+00 4.078979999999999606e+00 9.220299999999999940e+00 7.892200000000000326e-01 3.093059999999999921e+00 9.092599999999999127e+00 6.133420000000000094e+00 9.125389999999999446e+00 4.161360000000000170e+00 8.530299999999999550e-01 8.387109999999999843e+00 3.674490000000000034e+00 6.129909999999999748e+00 9.368750000000000355e+00 9.244180000000000064e+00 8.693600000000000216e-01 8.152260000000000062e+00 9.344709999999999184e+00 6.307540000000000369e+00 3.406000000000000139e-01 1.665159999999999973e+00 3.977269999999999861e+00 -1.341360000000000108e+00 1.601390000000000091e+00 9.452270000000000394e+00 -4.476000000000000117e-02 6.660840000000000316e+00 4.268390000000000128e+00 -5.707400000000000251e-01 6.789620000000000211e+00 9.333579999999999544e+00 5.753169999999999895e+00 1.428020000000000067e+00 3.644810000000000105e+00 4.703520000000000145e+00 1.572429999999999994e+00 9.193469999999999587e+00 5.256990000000000052e+00 7.105970000000000120e+00 4.224310000000000009e+00 4.575759999999999827e+00 7.114270000000000316e+00 9.715410000000000323e+00 1.338070000000000093e+00 4.456209999999999560e+00 1.447840000000000016e+00 1.932599999999999874e-01 4.190719999999999779e+00 7.099660000000000082e+00 1.515519999999999978e+00 9.870799999999999130e+00 1.489069999999999894e+00 2.871400000000000063e-01 9.412810000000000343e+00 6.961459999999999759e+00 6.158140000000000391e+00 4.117659999999999876e+00 1.905769999999999964e+00 5.450580000000000425e+00 4.144479999999999720e+00 7.359340000000000437e+00 6.390509999999999913e+00 9.599449999999999150e+00 1.548789999999999889e+00 5.487639999999999851e+00 9.209379999999999455e+00 7.349000000000000199e+00 7.567500000000000338e-01 4.110369999999999635e+00 4.224079999999999835e+00 6.625999999999999945e-02 4.112820000000000142e+00 9.463050000000000850e+00 7.325599999999999890e-01 9.287610000000000809e+00 4.328380000000000116e+00 -7.488200000000000411e-01 9.400370000000000559e+00 9.784010000000000318e+00 5.725740000000000052e+00 4.175430000000000419e+00 4.520520000000000316e+00 5.067199999999999704e+00 4.239080000000000403e+00 1.001938999999999957e+01 6.068159999999999776e+00 9.488450000000000273e+00 4.849999999999999645e+00 4.765889999999999738e+00 9.421089999999999520e+00 9.659860000000000113e+00 5.900300000000000544e-01 2.003480000000000150e+00 1.311649999999999983e+00 -5.279999999999999971e-02 1.350899999999999990e+00 6.853329999999999700e+00 4.544799999999999951e-01 7.043910000000000338e+00 1.023220000000000018e+00 -2.657399999999999762e-01 6.830210000000000115e+00 6.805150000000000254e+00 5.792530000000000179e+00 1.235719999999999930e+00 1.150190000000000046e+00 5.134949999999999903e+00 1.439780000000000060e+00 6.773900000000000254e+00 6.028870000000000395e+00 6.697849999999999859e+00 1.506839999999999957e+00 5.248759999999999870e+00 6.689939999999999998e+00 6.967010000000000147e+00
4.591999999999999638e+00 3.027960000000000207e+00 2.666279999999999983e+00 3.661500000000000199e+00 3.004610000000000003e+00 7.956129999999999924e+00 4.771320000000000228e+00 8.324439999999999173e+00 2.653469999999999995e+00 3.869099999999999984e+00 8.189740000000000464e+00 7.673269999999999591e+00 -3.548499999999999988e-01 3.111029999999999962e+00 2.559779999999999944e+00 8.982879999999999754e+00 3.049370000000000136e+00 7.904010000000000424e+00 9.831630000000000535e+00 8.182949999999999946e+00 2.275539999999999896e+00 -1.104819999999999913e+00 8.032099999999999795e+00 7.676330000000000098e+00 1.722900000000000098e+00 5.791500000000000536e-01 3.312030000000000030e+00 6.743299999999999850e-01 3.189000000000000168e-01 8.650990000000000180e+00 1.757609999999999895e+00 5.797559999999999825e+00 2.946800000000000086e+00 1.128679999999999906e+00 5.497969999999999580e+00 8.292759999999999465e+00 7.022490000000000343e+00 2.064100000000000101e-01 3.311900000000000066e+00 6.323970000000000091e+00 5.199799999999999978e-01 8.485350000000000392e+00 6.932970000000000077e+00 5.617099999999999760e+00 3.051790000000000003e+00 6.012229999999999741e+00 5.728620000000000267e+00 8.501200000000000756e+00 2.528300000000000214e+00 2.785890000000000200e+00 3.474999999999999756e-01 1.389890000000000070e+00 2.521619999999999973e+00 5.733060000000000045e+00 2.352009999999999934e+00 7.800769999999999982e+00 2.991099999999999870e-01 1.442979999999999929e+00 8.190020000000000522e+00 5.609429999999999694e+00 7.507839999999999847e+00 2.826680000000000081e+00 6.254100000000000215e-01 6.358439999999999870e+00 2.704569999999999919e+00 5.627720000000000056e+00 7.252880000000000216e+00 7.924409999999999954e+00 4.561999999999999944e-01 6.502349999999999852e+00 7.950400000000000134e+00 5.685240000000000293e+00 4.285639999999999894e+00 1.116800000000000015e-01 5.483509999999999884e+00 5.242950000000000443e+00 3.926000000000000323e-02 8.222999999999999754e-02 4.133740000000000414e+00 5.415759999999999685e+00 5.274630000000000152e+00 5.326069999999999638e+00 5.176540000000000141e+00 1.536999999999999998e-02 9.268219999999999459e+00 9.009999999999999953e-02 5.424070000000000391e+00 7.686999999999999389e-02 8.316999999999999393e-02 2.788399999999999768e-01 9.440070000000000405e+00 5.190220000000000056e+00 5.226280000000000037e+00 8.548299999999999343e+00 5.188340000000000174e+00 1.056877000000000066e+01 3.452510000000000190e+00 4.438380000000000436e+00 3.684950000000000170e+00 2.486349999999999838e+00 3.955880000000000063e+00 9.201959999999999695e+00 3.377130000000000187e+00 9.662259999999999849e+00 3.859989999999999810e+00 2.518559999999999910e+00 9.511929999999999552e+00 8.878280000000000172e+00 8.559240000000000848e+00 4.356279999999999930e+00 3.388339999999999907e+00 7.801099999999999923e+00 4.561930000000000263e+00 8.670949999999999491e+00 8.443889999999999674e+00 9.287150000000000460e+00 3.767149999999999999e+00 2.764580000000000037e+00 2.098430000000000017e+00 2.122869999999999813e+00 2.038930000000000131e+00 1.720359999999999889e+00 7.479000000000000092e+00 3.070310000000000095e+00 7.131520000000000081e+00 2.054769999999999985e+00 2.288720000000000088e+00 7.113520000000000287e+00 7.121340000000000003e+00 8.006040000000000489e+00 1.733919999999999906e+00 2.250640000000000196e+00 7.192660000000000053e+00 2.056480000000000086e+00 7.608030000000000292e+00 8.028359999999999275e+00 7.230629999999999669e+00 2.303819999999999979e+00 7.261429999999999829e+00 7.019569999999999865e+00 7.618000000000000327e+00 2.774709999999999788e+00 1.457270000000000065e+00 4.893200000000000216e+00 1.566659999999999942e+00 1.056570000000000009e+00 1.029667000000000066e+01 2.943020000000000191e+00 6.872939999999999827e+00 4.778190000000000381e+00 1.744269999999999987e+00 6.285470000000000113e+00 1.010596999999999923e+01 7.667989999999999640e+00 9.620499999999999607e-01 5.293610000000000149e+00 7.020609999999999573e+00 1.474909999999999943e+00 1.027167000000000030e+01 7.835399999999999920e+00 6.347940000000000360e+00 4.851379999999999804e+00 6.841009999999999813e+00 6.358749999999999680e+00 1.030117000000000083e+01 3.847690000000000055e+00 4.222629999999999661e+00 1.076259999999999994e+00 2.908520000000000216e+00 4.050699999999999967e+00 6.355419999999999625e+00 3.800959999999999894e+00 9.384999999999999787e+00 1.010180000000000078e+00 3.127520000000000078e+00 9.419919999999999405e+00 6.327069999999999972e+00 9.228130000000000166e+00 4.026810000000000223e+00 1.026329999999999965e+00 8.027659999999999130e+00 4.109930000000000305e+00 6.011239999999999917e+00 8.999169999999999447e+00 9.569819999999999993e+00 8.710700000000000109e-01 8.051360000000000738e+00 9.062070000000000292e+00 6.507539999999999658e+00 2.240900000000000114e-01 1.546669999999999989e+00 4.156080000000000219e+00 -6.582999999999999963e-01 1.853949999999999987e+00 9.402570000000000761e+00 2.165199999999999902e-01 6.667259999999999742e+00 3.767500000000000071e+00 -2.495799999999999963e-01 6.677629999999999733e+00 9.054999999999999716e+00 5.634310000000000151e+00 1.453629999999999978e+00 3.932389999999999830e+00 4.645380000000000287e+00 1.761730000000000018e+00 9.146190000000000708e+00 5.256179999999999630e+00 6.719210000000000349e+00 3.674970000000000070e+00 4.596470000000000056e+00 6.753599999999999604e+00 9.508380000000000720e+00 1.098770000000000024e+00 4.315059999999999896e+00 1.452620000000000022e+00 3.250199999999999756e-01 4.286360000000000170e+00 6.696959999999999802e+00 1.248029999999999973e+00 9.610319999999999752e+00 1.666809999999999903e+00 2.580500000000000016e-01 9.458299999999999486e+00 7.062079999999999913e+00 6.274869999999999948e+00 4.430100000000000371e+00 1.555679999999999952e+00 5.317330000000000112e+00 4.267229999999999634e+00 6.988780000000000214e+00 6.232330000000000148e+00 9.327019999999999200e+00 1.884230000000000071e+00 5.690529999999999866e+00 9.765109999999999957e+00 6.869320000000000093e+00 5.133199999999999985e-01 4.210460000000000313e+00 4.251389999999999780e+00 -1.185699999999999948e-01 4.090440000000000076e+00 9.532030000000000669e+00 6.606100000000000305e-01 9.640430000000000277e+00 4.429619999999999891e+00 -2.311300000000000021e-01 9.255829999999999558e+00 9.625899999999999679e+00 5.696069999999999744e+00 4.273869999999999614e+00 4.155319999999999681e+00 5.160050000000000026e+00 3.953710000000000058e+00 9.649390000000000356e+00 5.531170000000000364e+00 9.314310000000000755e+00 4.237059999999999604e+00 5.258029999999999760e+00 9.330830000000000624e+00 9.891030000000000655e+00 6.002800000000000358e-01 1.452350000000000030e+00 1.697380000000000111e+00 -3.516599999999999726e-01 1.643540000000000001e+00 6.735599999999999810e+00 7.118600000000000483e-01 6.874609999999999665e+00 1.259770000000000056e+00 -3.535599999999999854e-01 7.033210000000000406e+00 6.276139999999999830e+00 5.727949999999999875e+00 1.876880000000000104e+00 1.178469999999999906e+00 4.809239999999999959e+00 1.613860000000000072e+00 6.455560000000000187e+00 5.871509999999999785e+00 6.790239999999999831e+00 1.222669999999999924e+00 5.052789999999999893e+00 6.940549999999999997e+00 6.775859999999999772e+00
4.640100000000000335e+00 3.190080000000000027e+00 3.374460000000000015e+00 3.821579999999999977e+00 2.851630000000000109e+00 8.390679999999999694e+00 4.793050000000000033e+00 8.397930000000000561e+00 2.654809999999999892e+00 3.759570000000000078e+00 8.049830000000000041e+00 8.227890000000000370e+00 1.006565999999999939e+01 2.320139999999999869e+00 2.697589999999999932e+00 9.113120000000000331e+00 2.790459999999999940e+00 8.433099999999999596e+00 9.978849999999999554e+00 8.687920000000000087e+00 2.541619999999999990e+00 -1.323590000000000044e+00 8.107319999999999638e+00 8.151839999999999975e+00 1.946499999999999897e+00 4.486499999999999932e-01 2.569420000000000037e+00 1.302130000000000010e+00 -5.550000000000000246e-03 8.922200000000000131e+00 2.163199999999999790e+00 5.175110000000000099e+00 2.623359999999999914e+00 1.020000000000000018e+00 5.272310000000000052e+00 8.165749999999999176e+00 6.759920000000000151e+00 6.133999999999999453e-01 3.668509999999999938e+00 6.478360000000000340e+00 1.045337999999999923e+01 8.470029999999999504e+00 7.701620000000000132e+00 5.576019999999999754e+00 3.058209999999999873e+00 6.448710000000000164e+00 5.157379999999999853e+00 8.991799999999999571e+00 1.278739999999999988e+00 2.881670000000000176e+00 1.035444000000000031e+01 1.746590000000000087e+00 3.130030000000000090e+00 5.665460000000000385e+00 3.706699999999999995e-01 8.109830000000000538e+00 1.086853999999999942e+01 1.583909999999999929e+00 8.947290000000000632e+00 5.543859999999999566e+00 7.287460000000000271e+00 3.085820000000000007e+00 8.937500000000000444e-01 7.196729999999999627e+00 3.304479999999999862e+00 5.767249999999999766e+00 7.588680000000000092e+00 7.901930000000000121e+00 3.896000000000000019e-01 7.340309999999999668e+00 8.305970000000000297e+00 5.473889999999999922e+00 4.187630000000000408e+00 1.067000000000000032e-01 5.999469999999999636e+00 5.562590000000000146e+00 1.287399999999999933e-01 3.119299999999999851e-01 4.250989999999999824e+00 6.210189999999999877e+00 5.663409999999999833e+00 4.901860000000000106e+00 5.543560000000000265e+00 6.696100000000000385e-01 9.510410000000000252e+00 4.403000000000000247e-01 5.502889999999999837e+00 1.007568000000000019e+01 1.187099999999999961e-01 1.229299999999999976e-01 -8.971500000000000030e-01 6.337180000000000035e+00 5.514840000000000408e+00 1.057806000000000068e+01 5.343440000000000190e+00 6.109999999999999876e-01 1.152590000000000003e+00 5.648100000000000342e+00 5.928700000000000081e+00 5.174800000000000511e-01 3.459449999999999914e+00 7.089409999999999989e+00 2.818039999999999878e+00 1.016802000000000028e+01 4.618809999999999860e+00 2.669140000000000068e+00 9.593680000000000874e+00 9.650050000000000239e+00 -1.205470000000000041e+00 7.383740000000000414e+00 1.014680000000000071e+01 6.606220000000000425e+00 7.046090000000000408e+00 9.806340000000000501e+00 8.470499999999999474e+00 1.837350000000000039e+00 4.342929999999999957e+00 3.866089999999999804e+00 1.182260000000000089e+00 2.488400000000000056e-01 3.197849999999999859e+00 2.175590000000000135e+00 6.548219999999999708e+00 3.858760000000000190e+00 7.519969999999999821e+00 9.452199999999999491e-01 3.042469999999999786e+00 7.587310000000000443e+00 6.143539999999999779e+00 5.785800000000000054e+00 9.807339999999999947e+00 1.791530000000000067e+00 5.684129999999999683e+00 9.114000000000000767e+00 7.178370000000000140e+00 8.627560000000000784e+00 9.507680000000000575e+00 1.105099999999999971e+00 5.205739999999999590e+00 6.296669999999999767e+00 7.505029999999999646e+00 2.918219999999999814e+00 2.029700000000000060e+00 3.282160000000000188e+00 2.076830000000000176e+00 1.813450000000000006e+00 8.753019999999999357e+00 3.870359999999999800e+00 6.312599999999999767e+00 3.425910000000000011e+00 4.065949999999999953e+00 6.698260000000000325e+00 1.061564000000000085e+01 8.398400000000000531e+00 1.021213999999999977e+01 4.295090000000000074e+00 8.949350000000000804e+00 1.709689999999999932e+00 1.031859999999999999e+00 9.416669999999999874e+00 6.997440000000000104e+00 1.571569999999999911e+00 6.157510000000000261e+00 4.928950000000000387e+00 4.337130000000000152e+00 3.527470000000000105e+00 3.959839999999999804e+00 1.765220000000000011e+00 3.558219999999999938e+00 4.148690000000000211e+00 4.622519999999999740e+00 -2.754599999999999826e-01 3.541699999999999848e-01 3.326099999999999834e+00 2.929910000000000014e+00 9.637320000000000775e+00 7.220830000000000304e+00 5.533640000000000114e+00 2.051639999999999908e+00 4.638219999999999565e+00 8.249050000000000438e+00 4.345419999999999838e+00 9.567949999999999733e+00 7.867950000000000443e+00 1.615189999999999904e+00 9.428679999999999950e+00 -1.143099999999999949e-01 8.497360000000000468e+00 6.515290000000000248e+00 8.380340000000000344e+00 1.973719999999999919e+00 6.568240000000000300e+00 1.040470000000000006e+00 1.847429999999999906e+00 1.337839999999999918e+00 6.205300000000000260e-01 5.138000000000000206e-02 6.228690000000000282e+00 1.797509999999999941e+00 5.517470000000000319e+00 7.970199999999999507e-01 8.719419999999999504e+00 4.502519999999999634e+00 1.227829999999999977e+00 4.806720000000000326e+00 1.627269999999999994e+00 1.050074000000000041e+01 5.985870000000000246e+00 4.316950000000000287e+00 1.881389999999999896e+00 2.975049999999999972e+00 4.480439999999999756e+00 7.517290000000000028e+00 2.599520000000000053e+00 4.206570000000000142e+00 1.001038999999999923e+01 -6.739600000000000035e-01 6.099910000000000387e+00 7.666549999999999976e+00 6.372400000000000286e-01 9.635109999999999175e+00 1.435259999999999980e+00 1.964599999999999957e-01 9.027490000000000236e+00 8.933579999999999188e+00 5.701360000000000205e+00 7.338910000000000267e+00 4.574550000000000338e+00 5.338479999999999670e+00 8.803699999999999859e-01 7.766539999999999999e+00 3.039390000000000036e+00 9.332369999999999166e+00 2.217099999999999849e+00 8.277839999999999421e+00 9.775600000000000733e+00 7.307809999999999917e+00 8.777939999999999188e+00 4.685599999999999987e+00 5.479709999999999859e+00 2.025419999999999998e+00 6.933300000000000018e+00 8.750579999999999359e+00 -9.446999999999999842e-02 1.602899999999999991e+00 9.108190000000000452e+00 7.037000000000000199e-02 4.194300000000000139e+00 9.856790000000000163e+00 6.717859999999999943e+00 3.638110000000000177e+00 7.506619999999999848e+00 5.231160000000000032e+00 3.921139999999999848e+00 9.985329999999999373e+00 5.900079999999999991e+00 1.006916999999999973e+01 4.844820000000000348e+00 5.175639999999999574e+00 9.592700000000000671e+00 9.851390000000000313e+00 6.550200000000000466e-01 4.094529999999999781e+00 2.125680000000000014e+00 4.437900000000000178e-01 2.553739999999999899e+00 4.369959999999999845e+00 7.221699999999999786e-01 8.160310000000000841e+00 3.737859999999999960e+00 8.385820000000000718e+00 7.049570000000000114e+00 4.191749999999999865e+00 6.529819999999999958e+00 7.243929999999999758e+00 2.013999999999999790e+00 6.044810000000000016e+00 1.605159999999999920e+00 2.124890000000000168e+00 8.831469999999999487e+00 9.908220000000000027e+00 9.575639999999999930e+00 8.117440000000000211e+00 6.975719999999999921e+00 6.565019999999999634e+00
4.674949999999999939e+00 3.174889999999999990e+00 2.834820000000000118e+00 3.727770000000000028e+00 3.153989999999999849e+00 8.162549999999999528e+00 4.641390000000000349e+00 8.271100000000000563e+00 2.657210000000000072e+00 4.154040000000000177e+00 8.488550000000000040e+00 8.026690000000000325e+00 9.999180000000000845e+00 3.052220000000000155e+00 2.495730000000000004e+00 -1.233829999999999982e+00 3.323240000000000194e+00 8.154780000000000584e+00 -2.887199999999999767e-01 8.440739999999999910e+00 2.548150000000000137e+00 -1.304410000000000069e+00 8.083420000000000272e+00 7.849280000000000257e+00 1.719359999999999999e+00 6.500000000000000222e-01 2.842459999999999987e+00 7.897899999999999920e-01 6.258899999999999464e-01 8.165900000000000603e+00 1.742949999999999999e+00 5.634030000000000094e+00 3.182399999999999896e+00 1.131229999999999958e+00 5.857920000000000016e+00 8.286189999999999500e+00 6.932719999999999771e+00 2.830900000000000083e-01 3.246669999999999945e+00 5.900009999999999977e+00 6.479700000000000459e-01 8.702890000000000015e+00 7.258399999999999963e+00 5.888889999999999958e+00 3.220699999999999896e+00 6.161369999999999791e+00 5.650290000000000035e+00 8.723100000000000520e+00 2.326810000000000045e+00 2.531019999999999825e+00 2.781699999999999728e-01 1.251980000000000093e+00 2.862690000000000179e+00 5.512620000000000076e+00 2.315859999999999808e+00 7.926549999999999763e+00 1.485100000000000031e-01 1.379480000000000040e+00 8.158659999999999357e+00 5.826019999999999754e+00 7.673320000000000363e+00 3.020820000000000061e+00 5.666400000000000325e-01 6.737989999999999924e+00 2.498330000000000162e+00 5.743170000000000108e+00 7.836509999999999643e+00 8.234849999999999781e+00 2.656700000000000172e-01 6.834410000000000096e+00 8.034470000000000667e+00 5.791380000000000194e+00 4.453240000000000087e+00 7.222000000000000641e-02 5.295960000000000001e+00 5.108769999999999811e+00 7.295999999999999708e-02 2.969600000000000017e-01 4.365310000000000024e+00 5.016269999999999563e+00 5.744979999999999976e+00 5.303539999999999921e+00 5.502270000000000216e+00 3.192599999999999882e-01 -8.171500000000000430e-01 1.055284999999999940e+01 5.577619999999999578e+00 1.726399999999999879e-01 1.060665999999999976e+01 1.066600000000000048e-01 9.513529999999999376e+00 5.091249999999999609e+00 5.458479999999999777e+00 1.050271000000000043e+01 5.368689999999999962e+00 6.479000000000000037e-02 3.052420000000000133e+00 4.245949999999999669e+00 3.810439999999999827e+00 2.508049999999999891e+00 4.451900000000000190e+00 8.525209999999999511e+00 3.675019999999999953e+00 9.966540000000000177e+00 3.201270000000000060e+00 2.977790000000000159e+00 1.005207000000000050e+01 9.009510000000000574e+00 8.747249999999999304e+00 4.409769999999999968e+00 3.783520000000000216e+00 7.782980000000000231e+00 4.332609999999999850e+00 8.720990000000000464e+00 8.317750000000000199e+00 9.570579999999999643e+00 3.488989999999999814e+00 3.283609999999999918e+00 1.766170000000000018e+00 2.296949999999999825e+00 2.161350000000000104e+00 1.929030000000000022e+00 8.027559999999999363e+00 3.334029999999999827e+00 6.785849999999999937e+00 2.351440000000000197e+00 2.058089999999999975e+00 7.418759999999999799e+00 7.595919999999999561e+00 8.627179999999999183e+00 1.771339999999999915e+00 2.056350000000000122e+00 7.337100000000000399e+00 1.868249999999999966e+00 7.782250000000000334e+00 8.702759999999999607e+00 7.392199999999999882e+00 2.077220000000000066e+00 7.539500000000000313e+00 6.778480000000000061e+00 7.575129999999999697e+00 2.315109999999999779e+00 1.100319999999999965e+00 4.459609999999999630e+00 -4.041399999999999992e-01 1.585210000000000008e+00 9.536160000000000636e+00 2.907000000000000028e+00 6.291039999999999743e+00 5.402720000000000411e+00 1.866759999999999975e+00 6.477549999999999919e+00 1.012622999999999962e+01 7.925399999999999778e+00 1.136200000000000099e+00 5.118009999999999948e+00 4.788879999999999804e+00 2.122930000000000206e+00 9.624549999999999272e+00 7.863850000000000229e+00 6.363879999999999981e+00 4.832959999999999923e+00 7.122139999999999915e+00 6.544260000000000410e+00 1.027267999999999937e+01 3.654980000000000118e+00 3.669399999999999995e+00 5.288599999999999968e-01 3.439459999999999962e+00 3.244139999999999802e+00 6.095040000000000013e+00 4.009299999999999642e+00 8.896860000000000213e+00 2.887899999999999912e-01 2.673519999999999897e+00 9.727169999999999206e+00 6.027650000000000396e+00 8.633390000000000342e+00 4.522770000000000401e+00 1.037570000000000103e+00 8.328699999999999548e+00 3.818169999999999842e+00 6.414240000000000386e+00 9.442030000000000811e+00 9.486810000000000187e+00 9.148699999999999610e-01 8.550729999999999720e+00 8.861269999999999314e+00 6.069149999999999601e+00 2.293399999999999883e-01 1.550999999999999934e+00 3.928310000000000191e+00 7.520620000000000083e+00 1.224639999999999951e+00 1.025717999999999996e+01 1.564599999999999880e-01 6.979630000000000223e+00 4.150920000000000165e+00 -7.948800000000000310e-01 6.446089999999999876e+00 9.277340000000000586e+00 5.589660000000000295e+00 1.718010000000000037e+00 4.083169999999999966e+00 1.356119999999999992e+00 6.497500000000000497e-01 1.050367999999999924e+01 5.629850000000000243e+00 7.044719999999999871e+00 3.787970000000000059e+00 4.729350000000000165e+00 7.066430000000000433e+00 9.516740000000000421e+00 9.833800000000000319e-01 4.160499999999999865e+00 1.433499999999999996e+00 5.832100000000000062e-01 4.367840000000000167e+00 6.709240000000000315e+00 1.581250000000000044e+00 9.551259999999999195e+00 1.229829999999999979e+00 2.748099999999999987e-01 9.542099999999999582e+00 7.030160000000000409e+00 6.062459999999999738e+00 4.161109999999999864e+00 1.715719999999999912e+00 5.414380000000000415e+00 4.181569999999999787e+00 7.248409999999999798e+00 5.933060000000000223e+00 9.777969999999999828e+00 1.821499999999999897e+00 5.856329999999999814e+00 9.335240000000000649e+00 7.086719999999999686e+00 4.887099999999999778e-01 4.014750000000000263e+00 3.944100000000000161e+00 -2.028300000000000103e-01 4.203409999999999869e+00 9.764319999999999666e+00 4.634599999999999831e-01 9.388719999999999288e+00 4.358600000000000030e+00 -6.374100000000000321e-01 8.921499999999999986e+00 9.637439999999999785e+00 5.677010000000000112e+00 4.426169999999999938e+00 4.417089999999999961e+00 5.009759999999999991e+00 4.554640000000000022e+00 9.854990000000000805e+00 6.174470000000000347e+00 9.650550000000000850e+00 4.649269999999999570e+00 4.983299999999999841e+00 9.756339999999999790e+00 1.007103000000000037e+01 7.046200000000000241e-01 1.593579999999999997e+00 1.354020000000000001e+00 -2.754199999999999982e-01 1.511509999999999909e+00 6.659950000000000259e+00 9.624399999999999622e-01 6.874349999999999739e+00 1.331809999999999938e+00 -6.535000000000000531e-02 6.654580000000000162e+00 6.697359999999999758e+00 6.293180000000000440e+00 1.652870000000000061e+00 1.414500000000000091e+00 4.760930000000000106e+00 1.124430000000000041e+00 7.009739999999999860e+00 6.547119999999999607e+00 6.703979999999999606e+00 1.349630000000000107e+00 4.883289999999999687e+00 7.108130000000000059e+00 6.531220000000000248e+00