2.666700000000000070e+00 1.031868000000000052e+01 2.655510000000000037e+00 2.700639999999999930e+00 1.020187999999999917e+01 8.094820000000000348e+00 2.615380000000000038e+00 5.086420000000000385e+00 2.635780000000000012e+00 2.700990000000000002e+00 4.944679999999999964e+00 8.337289999999999424e+00 1.472000000000000045e-02 2.498229999999999951e+00 2.637100000000000222e+00 5.723999999999999921e-02 2.721029999999999838e+00 8.102550000000000807e+00 2.769900000000000140e-01 7.801110000000000433e+00 2.273750000000000160e+00 4.708600000000000008e-01 7.911880000000000024e+00 7.681600000000000428e+00 7.989869999999999806e+00 2.732040000000000024e+00 5.154490000000000016e+00 8.001899999999999125e+00 2.610459999999999781e+00 1.055855999999999995e+01 7.875560000000000116e+00 7.948879999999999946e+00 5.069530000000000314e+00 7.551140000000000185e+00 8.005440000000000111e+00 1.021226000000000056e+01 5.420040000000000191e+00 1.017068000000000083e+01 4.664000000000000090e-02 5.160849999999999937e+00 1.011508000000000074e+01 5.454069999999999752e+00 5.245149999999999757e+00 5.307310000000000194e+00 2.816199999999999815e-01 5.216980000000000395e+00 5.569359999999999644e+00 5.452079999999999593e+00 5.055889999999999773e+00 2.629370000000000207e+00 2.257639999999999869e+00 5.324849999999999639e+00 2.579810000000000159e+00 7.635500000000000398e+00 5.362479999999999691e+00 7.872939999999999827e+00 2.202160000000000117e+00 5.146069999999999922e+00 7.884900000000000020e+00 7.761020000000000252e+00 7.629120000000000346e+00 6.016799999999999926e-01 2.875519999999999854e+00 7.773010000000000197e+00 1.967299999999999882e-01 7.897590000000000110e+00 7.722070000000000434e+00 5.267559999999999576e+00 3.052849999999999842e+00 7.708269999999999733e+00 5.251960000000000406e+00 8.269769999999999399e+00 -1.853000000000000133e-02 1.020838000000000001e+01 1.055015999999999998e+01 1.752199999999999869e-01 5.444999999999999840e-02 5.187750000000000306e+00 1.015216000000000030e+01 5.281010000000000204e+00 2.533500000000000196e-01 1.657800000000000107e-01 5.205530000000000435e+00 5.613599999999999923e+00 2.717600000000000016e+00 2.458549999999999791e+00 5.262229999999999741e+00 2.676079999999999792e+00 2.302329999999999988e+00 1.051295999999999964e+01 2.774270000000000014e+00 7.823929999999999829e+00 5.005329999999999835e+00 2.701379999999999892e+00 7.675510000000000055e+00 1.066025999999999918e+01 8.925050000000000594e+00 3.840570000000000039e+00 1.079269999999999952e+00 9.239069999999999894e+00 3.580839999999999801e+00 6.336179999999999701e+00 9.391170000000000684e+00 8.589949999999999974e+00 7.936900000000000066e-01 9.254979999999999762e+00 8.819789999999999353e+00 6.340069999999999872e+00 3.813969999999999860e+00 9.629499999999999726e-01 4.388449999999999740e+00 3.808769999999999989e+00 5.802399999999999780e-01 1.003623999999999938e+01 3.548989999999999867e+00 6.215250000000000163e+00 4.267929999999999779e+00 3.659679999999999822e+00 5.956909999999999705e+00 9.887969999999999260e+00 3.612410000000000121e+00 3.399309999999999832e+00 3.724310000000000009e+00 4.086000000000000298e+00 3.175759999999999916e+00 9.113279999999999603e+00 4.211590000000000167e+00 8.873110000000000497e+00 3.539210000000000189e+00 3.643170000000000019e+00 8.544499999999999318e+00 9.265340000000000131e+00 8.712320000000000064e+00 8.929200000000000470e-01 1.233279999999999932e+00 9.051539999999999253e+00 1.210690000000000044e+00 6.704880000000000173e+00 9.265549999999999287e+00 6.393480000000000274e+00 1.764909999999999979e+00 9.234019999999999229e+00 6.193500000000000227e+00 7.296479999999999855e+00 8.991619999999999280e+00 3.602120000000000211e+00 3.749400000000000066e+00 9.307669999999999888e+00 3.958130000000000148e+00 9.229779999999999873e+00 9.431829999999999714e+00 9.328490000000000393e+00 3.577869999999999884e+00 9.005570000000000519e+00 9.171969999999999956e+00 9.066720000000000113e+00 3.752409999999999801e+00 1.132009999999999961e+00 1.691459999999999964e+00 4.018469999999999764e+00 1.297320000000000029e+00 6.880029999999999646e+00 3.911059999999999981e+00 6.580510000000000304e+00 1.769800000000000040e+00 4.001450000000000173e+00 6.525079999999999991e+00 7.164789999999999992e+00 1.293619999999999992e+00 1.415680000000000049e+00 3.732060000000000155e+00 1.763770000000000060e+00 1.548680000000000057e+00 8.864890000000000825e+00 1.260899999999999910e+00 6.676940000000000097e+00 3.462140000000000217e+00 1.599350000000000049e+00 6.580239999999999867e+00 8.764379999999999171e+00 6.024390000000000356e+00 1.718979999999999952e+00 8.987899999999999778e-01 6.569270000000000387e+00 1.509090000000000042e+00 6.192319999999999602e+00 6.674579999999999735e+00 6.726409999999999556e+00 1.016100000000000003e+00 6.807549999999999990e+00 6.689090000000000202e+00 6.254059999999999953e+00 6.595959999999999823e+00 2.096439999999999859e+00 3.663839999999999986e+00 6.532370000000000232e+00 1.479030000000000067e+00 9.090719999999999246e+00 6.546030000000000015e+00 6.944969999999999644e+00 3.709709999999999841e+00 6.278310000000000279e+00 6.806140000000000079e+00 8.827600000000000335e+00 6.175959999999999894e+00 4.526740000000000208e+00 2.122539999999999871e+00 6.455980000000000274e+00 4.152809999999999668e+00 7.231499999999999595e+00 6.535800000000000054e+00 9.650829999999999131e+00 1.574820000000000109e+00 6.408000000000000362e+00 9.355999999999999872e+00 6.971560000000000201e+00 9.153340000000000032e+00 1.382940000000000058e+00 4.048829999999999707e+00 9.340970000000000439e+00 1.570950000000000069e+00 9.406779999999999475e+00 8.904009999999999536e+00 6.287279999999999980e+00 4.776650000000000063e+00 8.786279999999999646e+00 6.283750000000000391e+00 9.978590000000000515e+00 6.611780000000000435e+00 4.541299999999999670e+00 4.503129999999999633e+00 6.805399999999999672e+00 4.241649999999999920e+00 1.017276000000000025e+01 6.683550000000000324e+00 9.540050000000000807e+00 3.952519999999999811e+00 6.331579999999999764e+00 9.264929999999999666e+00 9.311299999999999244e+00 1.101290000000000102e+00 1.191699999999999982e+00 1.083369999999999944e+00 1.213410000000000100e+00 1.664849999999999941e+00 6.223749999999999893e+00 1.651140000000000052e+00 6.389619999999999855e+00 7.753299999999999637e-01 1.448050000000000059e+00 6.764100000000000001e+00 6.298350000000000115e+00 1.404900000000000038e+00 4.010519999999999641e+00 4.559840000000000337e+00 1.525160000000000071e+00 3.927509999999999835e+00 9.610300000000000509e+00 1.761190000000000033e+00 9.262320000000000775e+00 4.246220000000000105e+00 1.457680000000000087e+00 9.214850000000000207e+00 9.639770000000000394e+00 1.054729999999999945e+00 4.107330000000000148e+00 1.689230000000000009e+00 1.249719999999999942e+00 4.249629999999999797e+00 7.099190000000000111e+00 1.790839999999999987e+00 8.865339999999999776e+00 1.591299999999999937e+00 1.388169999999999904e+00 9.445840000000000458e+00 6.768950000000000244e+00 3.704600000000000115e+00 3.867210000000000036e+00 1.252469999999999972e+00 4.214789999999999814e+00 4.006350000000000300e+00 6.140749999999999709e+00
2.731390000000000207e+00 1.010909000000000013e+01 2.802760000000000140e+00 2.703959999999999919e+00 1.016938999999999993e+01 8.089209999999999567e+00 2.680239999999999956e+00 4.991789999999999949e+00 2.756009999999999849e+00 2.800749999999999851e+00 5.006479999999999819e+00 8.163090000000000401e+00 2.222999999999999976e-01 2.573160000000000114e+00 2.327659999999999840e+00 1.490599999999999981e-01 2.595130000000000159e+00 7.711549999999999905e+00 2.140999999999999848e-02 7.733349999999999724e+00 2.563149999999999817e+00 9.918860000000000454e+00 7.804140000000000299e+00 7.557669999999999888e+00 7.825219999999999843e+00 2.861439999999999984e+00 4.878919999999999924e+00 7.847050000000000303e+00 2.653709999999999791e+00 1.044101999999999997e+01 7.672690000000000232e+00 7.670090000000000074e+00 4.954030000000000378e+00 7.712279999999999802e+00 7.673759999999999692e+00 1.030452000000000012e+01 5.174000000000000377e+00 1.003115999999999985e+01 1.882900000000000129e-01 5.214439999999999742e+00 1.013658999999999999e+01 5.233089999999999797e+00 5.026229999999999976e+00 5.063279999999999781e+00 1.839200000000000002e-01 5.029779999999999696e+00 5.072700000000000209e+00 5.400850000000000151e+00 5.171719999999999651e+00 2.538629999999999942e+00 2.322519999999999918e+00 5.133230000000000182e+00 2.592420000000000169e+00 7.543929999999999580e+00 5.161730000000000373e+00 7.683639999999999581e+00 2.203100000000000058e+00 5.041100000000000136e+00 7.787219999999999587e+00 7.792089999999999961e+00 7.954229999999999912e+00 8.414000000000000645e-02 2.840019999999999989e+00 7.631490000000000329e+00 2.354199999999999904e-01 8.156729999999999592e+00 7.831509999999999749e+00 5.072610000000000063e+00 2.698010000000000019e+00 7.730970000000000120e+00 4.992720000000000269e+00 8.115050000000000097e+00 -1.359999999999999924e-02 1.013649000000000022e+01 1.081099999999999978e-01 1.012207000000000079e+01 2.856699999999999795e-01 5.505460000000000242e+00 -1.879999999999999944e-03 5.073220000000000063e+00 1.056331999999999915e+01 1.011646999999999963e+01 5.236609999999999765e+00 5.462920000000000442e+00 2.860529999999999795e+00 2.514549999999999841e+00 5.036030000000000229e+00 2.822159999999999780e+00 2.418540000000000134e+00 1.026922000000000068e+01 2.678819999999999979e+00 7.662889999999999979e+00 5.056779999999999831e+00 2.599289999999999878e+00 7.574580000000000091e+00 1.040751999999999988e+01 8.931499999999999773e+00 3.701620000000000132e+00 1.098489999999999966e+00 8.782709999999999795e+00 3.825689999999999813e+00 6.498669999999999725e+00 8.826700000000000657e+00 8.713219999999999743e+00 1.295239999999999947e+00 8.768380000000000507e+00 9.039329999999999643e+00 6.480669999999999931e+00 4.007990000000000386e+00 1.068699999999999983e+00 3.861219999999999875e+00 4.185830000000000162e+00 1.046589999999999909e+00 9.137950000000000017e+00 4.108209999999999695e+00 6.116389999999999993e+00 4.044369999999999798e+00 4.198470000000000368e+00 6.327650000000000219e+00 9.260630000000000805e+00 4.172019999999999840e+00 3.553370000000000140e+00 3.870359999999999800e+00 4.210390000000000299e+00 3.685480000000000089e+00 9.077080000000000481e+00 4.220959999999999823e+00 8.633330000000000837e+00 3.895900000000000141e+00 3.856479999999999908e+00 8.792020000000000834e+00 9.185200000000000031e+00 8.881449999999999179e+00 1.157699999999999951e+00 1.492340000000000000e+00 9.010009999999999408e+00 1.279339999999999922e+00 6.803379999999999761e+00 8.831289999999999196e+00 6.306930000000000369e+00 1.307039999999999980e+00 8.602009999999999934e+00 6.333560000000000301e+00 6.788330000000000197e+00 9.173000000000000043e+00 3.913850000000000051e+00 3.775599999999999845e+00 9.196410000000000196e+00 3.581459999999999866e+00 9.169290000000000163e+00 9.405799999999999272e+00 9.031710000000000349e+00 3.966660000000000075e+00 9.038529999999999731e+00 8.866130000000000067e+00 9.078210000000000335e+00 3.693950000000000067e+00 1.272450000000000081e+00 1.200599999999999890e+00 3.765680000000000138e+00 1.289940000000000087e+00 6.390139999999999709e+00 3.614500000000000046e+00 6.336800000000000210e+00 1.314119999999999955e+00 3.591740000000000155e+00 6.591160000000000352e+00 6.644800000000000040e+00 1.752729999999999899e+00 1.687999999999999945e+00 3.321180000000000021e+00 1.594470000000000054e+00 1.782710000000000017e+00 8.656549999999999301e+00 1.767870000000000053e+00 6.958859999999999602e+00 3.242739999999999956e+00 1.511200000000000099e+00 6.809750000000000192e+00 8.659570000000000434e+00 6.151440000000000019e+00 1.555660000000000043e+00 7.359400000000000386e-01 6.440690000000000026e+00 1.768799999999999928e+00 5.869239999999999569e+00 6.184829999999999828e+00 6.635900000000000354e+00 7.304500000000000437e-01 6.160289999999999822e+00 6.759109999999999729e+00 5.853869999999999685e+00 6.754410000000000025e+00 1.829879999999999951e+00 3.230910000000000171e+00 6.690820000000000434e+00 1.877610000000000001e+00 8.692890000000000228e+00 6.692409999999999748e+00 6.770039999999999836e+00 3.226640000000000175e+00 6.553869999999999862e+00 6.950400000000000134e+00 8.615230000000000388e+00 6.012870000000000381e+00 4.311370000000000147e+00 1.956700000000000106e+00 5.987190000000000012e+00 4.359560000000000102e+00 7.263519999999999754e+00 6.234029999999999738e+00 9.399829999999999686e+00 1.824629999999999974e+00 6.070599999999999774e+00 9.470010000000000261e+00 7.021149999999999558e+00 9.159900000000000375e+00 1.339239999999999986e+00 3.980129999999999946e+00 8.925430000000000419e+00 1.162889999999999979e+00 9.498929999999999652e+00 9.216689999999999827e+00 6.430419999999999803e+00 3.935099999999999820e+00 8.940060000000000784e+00 6.178609999999999935e+00 9.321089999999999876e+00 6.621170000000000222e+00 4.347260000000000346e+00 4.329920000000000435e+00 6.760489999999999888e+00 4.373050000000000104e+00 9.772740000000000649e+00 6.813229999999999897e+00 9.396240000000000592e+00 4.443450000000000344e+00 6.597179999999999822e+00 9.315239999999999299e+00 9.570740000000000691e+00 1.076009999999999911e+00 1.953689999999999927e+00 5.703200000000000491e-01 1.038980000000000015e+00 2.186929999999999819e+00 5.854840000000000266e+00 1.004979999999999984e+00 6.776550000000000296e+00 6.662299999999999889e-01 8.445700000000000429e-01 7.096700000000000230e+00 5.868660000000000210e+00 1.749670000000000059e+00 4.521729999999999805e+00 4.640819999999999723e+00 1.787970000000000059e+00 4.235490000000000421e+00 9.746610000000000440e+00 1.989509999999999890e+00 9.585390000000000299e+00 4.675639999999999574e+00 1.521409999999999929e+00 9.440549999999999997e+00 9.826930000000000831e+00 9.316900000000000182e-01 4.448240000000000194e+00 1.905200000000000005e+00 9.840200000000000058e-01 4.490330000000000155e+00 7.118030000000000079e+00 1.089499999999999913e+00 9.375890000000000057e+00 1.734580000000000011e+00 1.083860000000000046e+00 9.445190000000000197e+00 7.134100000000000108e+00 3.727640000000000065e+00 3.844520000000000159e+00 1.234939999999999927e+00 3.675339999999999829e+00 3.779160000000000075e+00 6.480699999999999683e+00
2.686259999999999870e+00 1.006122000000000050e+01 2.542019999999999946e+00 2.676429999999999865e+00 1.154599999999999932e-01 8.123820000000000263e+00 2.644120000000000026e+00 4.972540000000000404e+00 2.692070000000000185e+00 2.808199999999999807e+00 5.050370000000000026e+00 7.977579999999999671e+00 9.997460000000000235e+00 2.484620000000000051e+00 2.405339999999999812e+00 1.600999999999999993e-02 2.566339999999999844e+00 7.502600000000000158e+00 1.483299999999999896e-01 7.780759999999999899e+00 2.503779999999999895e+00 5.970000000000000306e-02 7.713729999999999976e+00 7.662379999999999747e+00 7.862759999999999749e+00 2.618129999999999846e+00 5.097369999999999735e+00 7.812030000000000030e+00 2.631299999999999972e+00 1.033519000000000077e+01 7.602389999999999759e+00 7.796549999999999869e+00 5.142170000000000130e+00 7.727640000000000065e+00 7.738229999999999720e+00 1.016818999999999917e+01 5.164220000000000255e+00 3.885000000000000259e-02 1.986900000000000055e-01 4.915849999999999831e+00 1.011002000000000045e+01 5.625149999999999650e+00 5.157309999999999839e+00 5.017789999999999750e+00 8.383999999999999786e-02 5.037679999999999936e+00 4.970799999999999663e+00 5.426580000000000403e+00 5.163739999999999775e+00 2.515390000000000015e+00 2.242820000000000036e+00 5.226779999999999760e+00 2.439130000000000020e+00 7.714389999999999858e+00 5.130950000000000344e+00 7.521490000000000009e+00 2.327170000000000183e+00 5.056510000000000282e+00 7.618190000000000239e+00 7.764240000000000030e+00 7.695590000000000153e+00 2.277500000000000080e-01 2.878899999999999793e+00 7.966179999999999595e+00 8.303000000000000658e-02 8.059910000000000352e+00 7.704679999999999751e+00 5.324569999999999581e+00 2.844790000000000152e+00 7.705610000000000070e+00 5.202799999999999869e+00 7.920630000000000059e+00 2.994000000000000133e-02 1.014791999999999916e+01 1.038899999999999962e-01 1.007831999999999972e+01 1.018951999999999991e+01 5.189239999999999853e+00 7.036000000000000587e-02 5.318130000000000024e+00 3.036800000000000055e-01 3.878999999999999809e-02 5.146189999999999820e+00 5.372359999999999580e+00 2.883500000000000174e+00 2.413240000000000052e+00 4.780689999999999884e+00 2.610990000000000144e+00 2.639180000000000081e+00 1.043379000000000012e+01 2.785629999999999828e+00 7.532399999999999984e+00 5.007839999999999847e+00 2.795249999999999790e+00 7.574600000000000222e+00 1.031869000000000014e+01 8.905789999999999651e+00 3.772289999999999921e+00 1.176739999999999897e+00 8.941539999999999822e+00 3.788790000000000102e+00 6.349870000000000125e+00 8.847089999999999677e+00 8.804059999999999775e+00 1.175229999999999997e+00 8.790050000000000807e+00 8.949989999999999668e+00 6.477560000000000429e+00 4.186370000000000147e+00 1.060370000000000035e+00 3.945030000000000037e+00 4.225789999999999935e+00 1.144330000000000069e+00 9.186890000000000001e+00 4.187890000000000335e+00 6.086479999999999890e+00 3.794000000000000039e+00 4.135040000000000049e+00 6.332620000000000360e+00 9.218339999999999534e+00 4.385839999999999961e+00 3.592849999999999877e+00 3.827890000000000015e+00 3.986889999999999823e+00 3.590289999999999981e+00 9.127370000000000871e+00 4.086199999999999832e+00 8.704850000000000421e+00 3.995849999999999902e+00 4.044340000000000046e+00 8.861819999999999808e+00 9.500750000000000028e+00 8.691119999999999735e+00 1.277439999999999909e+00 1.333820000000000006e+00 8.685129999999999129e+00 1.345569999999999933e+00 6.439630000000000187e+00 8.809160000000000323e+00 6.444379999999999775e+00 1.554850000000000065e+00 8.963150000000000617e+00 6.334620000000000140e+00 6.706859999999999822e+00 9.337329999999999686e+00 3.842249999999999943e+00 3.746950000000000003e+00 9.125540000000000873e+00 3.657350000000000101e+00 8.926069999999999283e+00 8.962440000000000850e+00 8.953359999999999985e+00 3.922919999999999963e+00 9.148799999999999599e+00 8.855230000000000601e+00 9.053969999999999629e+00 3.645410000000000039e+00 1.130870000000000042e+00 1.148060000000000080e+00 3.590409999999999879e+00 1.209510000000000085e+00 6.489379999999999704e+00 3.653389999999999915e+00 6.336459999999999759e+00 1.357799999999999896e+00 3.452640000000000153e+00 6.253619999999999735e+00 6.434169999999999945e+00 1.623490000000000100e+00 1.474129999999999940e+00 3.367840000000000167e+00 1.716920000000000002e+00 1.691680000000000073e+00 8.611219999999999430e+00 1.385029999999999983e+00 6.347690000000000055e+00 3.449749999999999872e+00 1.773910000000000098e+00 7.141060000000000407e+00 8.543400000000000105e+00 6.030990000000000073e+00 2.095670000000000144e+00 5.257600000000000051e-01 6.111340000000000217e+00 1.986040000000000028e+00 5.836879999999999846e+00 6.283489999999999576e+00 6.907350000000000101e+00 6.579000000000000403e-01 6.104470000000000063e+00 6.878059999999999619e+00 6.029180000000000206e+00 6.742930000000000312e+00 1.924379999999999979e+00 3.284909999999999997e+00 7.019029999999999880e+00 1.870319999999999983e+00 8.510239999999999583e+00 6.742770000000000152e+00 7.046829999999999927e+00 3.363710000000000200e+00 6.522470000000000212e+00 6.797150000000000247e+00 8.701869999999999550e+00 5.843259999999999899e+00 4.646759999999999557e+00 2.007810000000000095e+00 6.021060000000000301e+00 4.341649999999999565e+00 7.204469999999999708e+00 5.790020000000000167e+00 9.683279999999999887e+00 2.083169999999999966e+00 6.171299999999999564e+00 9.290789999999999438e+00 7.255250000000000199e+00 9.022759999999999891e+00 1.248960000000000070e+00 3.991220000000000212e+00 9.342530000000000001e+00 1.192909999999999915e+00 9.139760000000000773e+00 8.902469999999999217e+00 6.322829999999999728e+00 4.266630000000000145e+00 9.083679999999999310e+00 6.218630000000000102e+00 9.518789999999999196e+00 6.905240000000000045e+00 4.455029999999999824e+00 4.767260000000000275e+00 6.705709999999999837e+00 4.364390000000000214e+00 1.001526999999999923e+01 6.794069999999999609e+00 9.687530000000000641e+00 4.632469999999999644e+00 6.848239999999999661e+00 9.612949999999999662e+00 9.702579999999999316e+00 8.110300000000000287e-01 1.698600000000000110e+00 5.916599999999999637e-01 9.534000000000000252e-01 1.890519999999999978e+00 5.783610000000000362e+00 1.176199999999999912e+00 6.938189999999999635e+00 8.203599999999999781e-01 1.005880000000000107e+00 7.022149999999999892e+00 5.974429999999999907e+00 1.886439999999999895e+00 4.223919999999999675e+00 4.451010000000000133e+00 1.722310000000000008e+00 4.598519999999999719e+00 9.807779999999999276e+00 1.338289999999999980e+00 8.805180000000000007e+00 4.179210000000000313e+00 1.668860000000000010e+00 9.449529999999999319e+00 9.759040000000000603e+00 1.036310000000000064e+00 4.207119999999999749e+00 1.831690000000000040e+00 1.110449999999999937e+00 4.374299999999999855e+00 7.226020000000000110e+00 1.091439999999999966e+00 9.415300000000000225e+00 1.713570000000000038e+00 1.277109999999999967e+00 9.572950000000000514e+00 6.869449999999999612e+00 3.757359999999999811e+00 3.865819999999999812e+00 1.303199999999999914e+00 3.850969999999999782e+00 3.713779999999999859e+00 6.585869999999999891e+00
2.833610000000000184e+00 1.038081999999999994e+01 2.953599999999999781e+00 2.540550000000000086e+00 9.564000000000000279e-02 8.384499999999999176e+00 2.533440000000000136e+00 5.235759999999999970e+00 3.149379999999999846e+00 2.626020000000000021e+00 5.635180000000000078e+00 8.383879999999999555e+00 3.090999999999999998e-02 2.600220000000000198e+00 2.384970000000000034e+00 4.010999999999999982e-02 2.369409999999999794e+00 7.532560000000000144e+00 2.699500000000000233e-01 7.883300000000000196e+00 2.386099999999999888e+00 1.034238999999999997e+01 7.901980000000000004e+00 8.077590000000000714e+00 7.978939999999999699e+00 2.389850000000000030e+00 4.793249999999999567e+00 8.079729999999999634e+00 2.901769999999999960e+00 1.027350999999999992e+01 8.110699999999999577e+00 8.019379999999999953e+00 4.722800000000000331e+00 7.965320000000000178e+00 8.031420000000000670e+00 1.455400000000000027e-01 5.370479999999999698e+00 2.060999999999999985e-02 2.021499999999999964e-01 5.350419999999999732e+00 1.053972000000000087e+01 5.736290000000000333e+00 5.321539999999999715e+00 5.426569999999999894e+00 8.114999999999999991e-02 5.317859999999999587e+00 5.212710000000000399e+00 5.730419999999999625e+00 5.383110000000000284e+00 2.861580000000000013e+00 2.228369999999999962e+00 5.356399999999999828e+00 2.856139999999999901e+00 7.682179999999999787e+00 5.309820000000000206e+00 8.002290000000000347e+00 2.321320000000000050e+00 5.278410000000000046e+00 8.004619999999999180e+00 8.013239999999999696e+00 7.990509999999999557e+00 2.020200000000000051e-01 2.784640000000000004e+00 7.963219999999999743e+00 1.990099999999999925e-01 8.454510000000000858e+00 7.927089999999999748e+00 5.385379999999999612e+00 3.080659999999999954e+00 7.918569999999999887e+00 5.411870000000000402e+00 8.182919999999999305e+00 4.064499999999999780e-01 2.919900000000000273e-01 1.788899999999999935e-01 1.546899999999999942e-01 1.032272000000000034e+01 5.445389999999999731e+00 2.832100000000000173e-01 5.299430000000000085e+00 3.390400000000000080e-01 1.596599999999999964e-01 5.434849999999999959e+00 5.671549999999999869e+00 2.801109999999999989e+00 2.587219999999999853e+00 5.073129999999999917e+00 2.766199999999999992e+00 2.830750000000000099e+00 1.022511000000000081e+01 2.976840000000000153e+00 7.706690000000000040e+00 5.419570000000000221e+00 2.869169999999999998e+00 7.887760000000000105e+00 1.076191000000000031e+01 9.355439999999999756e+00 3.836259999999999781e+00 7.533600000000000296e-01 9.188629999999999853e+00 3.415979999999999794e+00 6.032079999999999664e+00 9.669409999999999172e+00 9.122629999999999129e+00 6.192499999999999671e-01 9.479660000000000863e+00 8.677709999999999368e+00 6.105310000000000237e+00 3.804539999999999811e+00 6.444499999999999673e-01 4.513969999999999594e+00 4.077180000000000248e+00 1.192020000000000080e+00 9.887079999999999202e+00 3.975429999999999797e+00 6.068100000000000271e+00 4.520520000000000316e+00 4.078289999999999971e+00 6.547200000000000131e+00 9.881360000000000809e+00 3.776660000000000128e+00 3.619610000000000216e+00 3.526330000000000187e+00 4.047850000000000392e+00 4.128029999999999866e+00 8.818630000000000635e+00 4.070909999999999584e+00 8.687939999999999330e+00 3.968469999999999942e+00 4.013880000000000337e+00 9.028600000000000847e+00 9.469039999999999679e+00 9.606840000000000046e+00 9.909000000000000030e-01 1.852819999999999911e+00 9.124549999999999272e+00 7.022699999999999498e-01 6.939359999999999751e+00 9.102220000000000866e+00 6.446279999999999788e+00 1.915680000000000049e+00 9.645459999999999923e+00 6.028599999999999959e+00 7.348510000000000097e+00 9.122920000000000584e+00 3.579000000000000181e+00 3.629399999999999959e+00 9.328739999999999810e+00 3.920900000000000052e+00 8.980499999999999261e+00 8.985590000000000188e+00 8.738950000000000884e+00 2.996570000000000178e+00 9.245070000000000121e+00 9.285769999999999413e+00 8.775420000000000442e+00 4.467080000000000162e+00 8.252899999999999681e-01 2.078440000000000065e+00 3.911789999999999878e+00 1.358940000000000037e+00 7.402479999999999727e+00 4.111379999999999590e+00 6.326760000000000161e+00 1.583599999999999897e+00 3.994060000000000166e+00 6.479510000000000325e+00 7.039369999999999905e+00 1.657259999999999955e+00 1.608980000000000077e+00 3.401409999999999823e+00 1.355569999999999942e+00 1.609410000000000007e+00 9.070330000000000226e+00 1.322589999999999932e+00 6.790479999999999627e+00 4.184689999999999799e+00 1.755940000000000056e+00 7.374699999999999811e+00 9.213660000000000849e+00 6.479049999999999976e+00 1.902570000000000094e+00 4.626700000000000257e-01 6.310800000000000409e+00 1.916190000000000060e+00 5.927500000000000213e+00 6.788149999999999906e+00 1.755190000000000028e+00 3.283659999999999801e+00 7.268699999999999939e+00 2.186949999999999950e+00 8.547919999999999519e+00 6.649750000000000050e+00 7.046380000000000088e+00 3.532220000000000137e+00 6.944469999999999921e+00 7.133910000000000196e+00 8.689329999999999998e+00 6.175709999999999589e+00 4.694340000000000401e+00 1.811620000000000008e+00 6.482850000000000001e+00 4.424140000000000406e+00 7.216389999999999638e+00 6.827180000000000248e+00 9.410959999999999326e+00 1.358500000000000041e+00 6.568360000000000198e+00 9.479119999999999990e+00 7.091649999999999565e+00 9.167299999999999116e+00 6.996200000000000196e-01 4.328619999999999912e+00 9.209210000000000562e+00 1.109660000000000091e+00 9.852289999999999992e+00 9.109329999999999927e+00 6.178370000000000140e+00 4.360730000000000217e+00 9.440049999999999386e+00 6.712270000000000181e+00 1.006648000000000032e+01 6.819460000000000299e+00 4.558930000000000149e+00 4.348379999999999690e+00 6.806770000000000209e+00 4.716239999999999988e+00 9.840999999999999304e+00 6.776519999999999655e+00 9.888439999999999230e+00 4.522240000000000038e+00 6.729020000000000223e+00 9.832869999999999777e+00 9.890309999999999491e+00 1.294510000000000050e+00 1.896589999999999998e+00 6.716699999999999893e-01 1.258720000000000061e+00 1.504769999999999941e+00 6.056440000000000268e+00 1.461950000000000083e+00 6.859619999999999607e+00 1.087059999999999915e+00 1.643289999999999917e+00 6.745330000000000048e+00 6.759540000000000326e+00 1.658479999999999954e+00 4.235470000000000290e+00 4.969949999999999868e+00 1.706620000000000026e+00 4.693279999999999674e+00 1.006237999999999921e+01 1.600710000000000077e+00 9.317410000000000636e+00 4.352640000000000065e+00 1.775169999999999915e+00 9.970629999999999882e+00 9.967530000000000001e+00 1.246769999999999934e+00 4.328000000000000291e+00 1.939820000000000100e+00 1.058419999999999916e+00 4.074349999999999916e+00 7.263860000000000205e+00 1.274070000000000036e+00 9.712350000000000705e+00 1.753929999999999989e+00 1.098670000000000035e+00 9.477570000000000050e+00 7.395690000000000097e+00 4.355870000000000353e+00 3.397590000000000110e+00 6.575499999999999678e-01 4.237800000000000011e+00 3.542829999999999924e+00 6.230080000000000062e+00 3.935379999999999878e+00 9.080149999999999721e+00 1.352740000000000054e+00 4.060999999999999943e+00 8.992300000000000182e+00 6.597990000000000244e+00