4.904180000000000206e+00 2.548970000000000180e+00 2.561230000000000118e+00 5.062170000000000059e+00 2.741039999999999921e+00 8.027169999999999916e+00 5.211380000000000123e+00 7.574970000000000425e+00 2.628369999999999873e+00 5.268290000000000362e+00 7.895970000000000155e+00 7.731359999999999566e+00 1.016217999999999932e+01 2.555959999999999788e+00 2.830729999999999968e+00 1.021268000000000065e+01 2.857940000000000147e+00 7.894730000000000025e+00 4.828000000000000347e-02 7.602669999999999817e+00 2.732450000000000045e+00 1.020898000000000039e+01 7.698179999999999801e+00 7.998409999999999798e+00 2.694220000000000059e+00 3.796000000000000069e-02 2.747370000000000090e+00 2.501430000000000042e+00 1.018357999999999919e+01 7.900750000000000384e+00 2.410540000000000127e+00 5.040580000000000283e+00 2.334719999999999906e+00 2.641350000000000087e+00 5.293759999999999799e+00 7.957080000000000375e+00 7.638440000000000119e+00 1.021748000000000012e+01 2.572459999999999969e+00 8.076510000000000744e+00 2.403099999999999958e-01 7.665199999999999569e+00 7.420429999999999637e+00 5.184490000000000265e+00 2.408230000000000093e+00 7.757089999999999819e+00 5.353010000000000268e+00 7.932690000000000019e+00 2.846359999999999779e+00 2.718960000000000043e+00 5.262380000000000280e+00 2.371220000000000105e+00 2.488529999999999909e+00 1.001064000000000043e+01 2.801559999999999828e+00 8.057579999999999742e+00 5.319189999999999863e+00 2.377240000000000020e+00 7.890979999999999883e+00 1.041999000000000031e+01 7.551720000000000432e+00 2.575229999999999908e+00 4.744139999999999802e+00 7.672380000000000422e+00 2.564900000000000180e+00 1.019039000000000073e+01 7.792869999999999742e+00 7.795499999999999652e+00 5.457849999999999646e+00 7.500329999999999941e+00 7.912659999999999805e+00 1.049788999999999994e+01 5.474899999999999878e+00 2.343099999999999905e-01 5.238529999999999909e+00 5.027199999999999669e+00 1.017628000000000021e+01 1.048259000000000007e+01 5.046280000000000321e+00 5.104250000000000398e+00 5.410210000000000186e+00 4.990389999999999660e+00 5.381960000000000299e+00 1.052429000000000059e+01 2.892899999999999916e-01 7.396999999999999409e-02 5.213540000000000063e+00 1.021668000000000021e+01 1.012728000000000073e+01 3.331799999999999762e-01 2.021399999999999864e-01 5.179459999999999731e+00 5.394910000000000316e+00 9.984519999999999840e+00 5.220509999999999984e+00 2.289799999999999891e-01 3.523099999999999898e+00 4.060990000000000322e+00 3.717210000000000125e+00 3.393369999999999997e+00 3.761390000000000011e+00 8.834170000000000300e+00 4.071620000000000239e+00 8.942579999999999529e+00 3.692070000000000185e+00 3.659650000000000070e+00 8.838100000000000733e+00 9.277979999999999450e+00 8.743869999999999365e+00 3.915449999999999875e+00 3.696889999999999787e+00 8.703689999999999927e+00 3.766789999999999861e+00 9.074989999999999668e+00 9.050470000000000681e+00 8.984819999999999141e+00 3.547550000000000203e+00 3.587919999999999998e+00 1.474760000000000071e+00 1.330149999999999944e+00 4.373990000000000045e+00 1.677289999999999948e+00 6.315780000000000172e+00 4.115759999999999863e+00 6.358640000000000292e+00 1.554370000000000029e+00 3.753190000000000026e+00 6.769809999999999661e+00 7.144490000000000229e+00 8.872040000000000148e+00 1.271290000000000031e+00 1.638770000000000060e+00 9.580429999999999779e+00 1.259460000000000024e+00 7.033120000000000260e+00 8.995240000000000791e+00 6.311209999999999987e+00 1.752420000000000089e+00 9.320389999999999731e+00 6.117539999999999978e+00 7.141530000000000378e+00 3.925640000000000018e+00 1.380560000000000009e+00 4.024639999999999773e+00 3.873019999999999907e+00 1.172390000000000043e+00 9.092650000000000787e+00 4.085069999999999979e+00 6.620779999999999887e+00 4.553049999999999820e+00 3.344529999999999781e+00 6.265349999999999753e+00 9.755129999999999413e+00 8.952220000000000510e+00 1.375329999999999941e+00 4.210709999999999731e+00 9.110409999999999897e+00 1.152590000000000003e+00 9.577429999999999666e+00 9.129849999999999355e+00 6.627760000000000318e+00 4.638589999999999769e+00 8.533369999999999678e+00 6.598740000000000272e+00 9.828079999999999927e+00 3.328749999999999876e+00 3.977889999999999926e+00 9.892999999999999572e-01 3.863519999999999843e+00 4.137920000000000265e+00 6.570039999999999658e+00 3.659479999999999844e+00 9.230480000000000018e+00 1.037099999999999911e+00 4.058320000000000149e+00 9.376870000000000260e+00 6.759769999999999612e+00 8.597350000000000492e+00 3.893499999999999961e+00 9.711400000000000032e-01 8.986879999999999313e+00 3.421240000000000059e+00 6.239320000000000199e+00 8.641239999999999810e+00 9.260859999999999204e+00 1.129590000000000094e+00 9.132009999999999295e+00 9.070790000000000575e+00 6.481620000000000381e+00 1.259740000000000082e+00 1.234220000000000095e+00 3.724079999999999835e+00 1.236879999999999979e+00 1.473319999999999963e+00 8.683609999999999829e+00 1.374039999999999928e+00 6.307970000000000077e+00 3.672750000000000181e+00 9.326499999999999790e-01 6.675360000000000404e+00 9.239630000000000010e+00 6.206850000000000200e+00 1.388449999999999962e+00 3.731609999999999872e+00 6.704839999999999911e+00 1.618619999999999948e+00 8.653560000000000585e+00 6.616740000000000066e+00 6.592640000000000278e+00 3.538089999999999957e+00 5.892719999999999736e+00 6.212930000000000064e+00 8.748340000000000671e+00 9.025199999999999889e-01 3.899290000000000145e+00 1.668889999999999985e+00 1.361469999999999958e+00 3.827370000000000161e+00 7.024829999999999686e+00 1.092219999999999969e+00 9.135930000000000106e+00 1.703799999999999981e+00 1.249120000000000008e+00 8.901820000000000732e+00 6.888399999999999856e+00 5.907429999999999737e+00 4.019099999999999895e+00 1.650009999999999977e+00 6.425589999999999691e+00 4.068710000000000271e+00 6.917029999999999568e+00 6.199720000000000120e+00 8.965790000000000148e+00 1.524459999999999926e+00 6.490940000000000154e+00 9.292389999999999262e+00 6.719439999999999635e+00 9.627299999999999747e-01 3.289330000000000087e+00 4.771910000000000096e+00 9.385999999999999899e-01 3.901339999999999808e+00 9.709089999999999776e+00 1.319299999999999917e+00 8.870419999999999305e+00 4.175169999999999604e+00 8.970929999999999183e+00 8.984569999999999723e+00 8.919190000000000396e+00 6.014520000000000088e+00 3.870540000000000092e+00 4.086470000000000269e+00 5.941430000000000433e+00 3.883389999999999898e+00 9.607590000000000074e+00 6.412819999999999965e+00 8.949550000000000338e+00 4.167209999999999859e+00 6.143670000000000186e+00 8.767899999999999139e+00 9.407560000000000144e+00 1.224369999999999958e+00 1.299190000000000067e+00 1.095720000000000027e+00 2.068979999999999819e+00 8.791999999999999815e-01 6.076850000000000307e+00 1.200020000000000087e+00 6.548040000000000305e+00 1.350319999999999965e+00 1.489659999999999984e+00 6.309179999999999566e+00 6.314589999999999925e+00 6.241080000000000183e+00 1.450939999999999896e+00 1.022399999999999975e+00 7.217179999999999929e+00 1.206010000000000026e+00 5.892590000000000217e+00 6.439700000000000202e+00 6.440190000000000303e+00 1.023239999999999927e+00 6.443010000000000126e+00 6.528900000000000148e+00 6.281119999999999592e+00
5.177950000000000053e+00 2.709090000000000220e+00 2.691619999999999902e+00 4.942980000000000373e+00 2.517669999999999852e+00 7.490079999999999849e+00 5.143670000000000186e+00 7.717579999999999885e+00 2.721070000000000100e+00 5.070890000000000342e+00 7.826950000000000074e+00 7.591120000000000090e+00 2.509700000000000264e-01 2.964480000000000004e+00 2.387220000000000120e+00 1.012171000000000021e+01 2.685849999999999849e+00 8.106759999999999522e+00 2.282999999999999960e-02 7.578260000000000218e+00 2.376090000000000035e+00 5.825000000000000316e-02 7.804260000000000197e+00 7.970030000000000392e+00 2.171289999999999942e+00 3.714999999999999969e-01 2.455789999999999917e+00 2.347640000000000171e+00 1.023630999999999958e+01 8.081879999999999953e+00 2.682350000000000012e+00 5.477400000000000269e+00 2.642220000000000013e+00 2.886239999999999917e+00 5.145509999999999806e+00 8.288729999999999265e+00 7.689210000000000100e+00 1.023250999999999955e+01 2.600039999999999907e+00 7.619629999999999903e+00 3.125100000000000100e-01 7.903410000000000046e+00 8.054240000000000066e+00 5.042629999999999946e+00 2.503089999999999815e+00 7.624799999999999578e+00 5.024619999999999642e+00 7.780999999999999694e+00 2.463189999999999991e+00 2.700699999999999878e+00 5.181140000000000079e+00 2.927939999999999987e+00 2.733350000000000168e+00 1.059185000000000088e+01 2.303519999999999790e+00 7.881999999999999673e+00 5.025100000000000122e+00 2.625599999999999934e+00 7.641939999999999955e+00 1.056685000000000052e+01 7.855520000000000280e+00 2.620109999999999939e+00 5.142590000000000217e+00 7.593449999999999811e+00 2.995600000000000041e+00 1.049535000000000018e+01 7.800110000000000099e+00 7.397059999999999746e+00 4.963930000000000398e+00 7.604079999999999728e+00 7.787799999999999834e+00 3.440000000000000002e-02 5.170329999999999870e+00 1.010900999999999961e+01 5.275619999999999976e+00 5.193179999999999907e+00 7.756000000000000394e-02 4.007999999999999757e-02 4.959030000000000271e+00 5.102759999999999962e+00 5.149370000000000225e+00 5.174030000000000129e+00 5.272029999999999994e+00 1.991900000000000059e-01 8.064000000000000334e-02 3.721400000000000263e-01 5.087030000000000385e+00 1.015141000000000027e+01 1.749600000000000044e-01 1.053505000000000003e+01 2.187099999999999878e-01 5.239329999999999821e+00 5.742239999999999789e+00 3.828999999999999765e-02 5.517220000000000013e+00 1.016864999999999952e+01 4.233719999999999928e+00 4.197370000000000267e+00 3.413699999999999957e+00 4.057039999999999758e+00 3.814830000000000165e+00 8.889549999999999841e+00 3.779659999999999798e+00 9.530559999999999476e+00 3.454079999999999817e+00 3.572919999999999874e+00 8.782840000000000202e+00 8.819779999999999731e+00 8.915839999999999321e+00 3.199059999999999793e+00 3.516789999999999861e+00 8.970599999999999241e+00 4.203450000000000131e+00 9.251279999999999504e+00 8.709749999999999659e+00 8.503470000000000084e+00 3.118679999999999897e+00 3.898610000000000131e+00 1.239079999999999959e+00 1.730359999999999898e+00 3.577820000000000000e+00 1.078430000000000000e+00 6.592660000000000409e+00 4.118490000000000428e+00 6.317350000000000243e+00 1.519379999999999953e+00 3.978429999999999911e+00 6.238529999999999909e+00 6.755419999999999980e+00 8.447400000000000020e+00 2.139699999999999935e-01 4.488550000000000040e+00 8.768800000000000594e+00 1.234620000000000051e+00 9.596519999999999939e+00 9.320729999999999293e+00 6.374539999999999651e+00 3.972039999999999793e+00 8.799899999999999167e+00 6.566819999999999879e+00 9.329230000000000800e+00 4.355570000000000164e+00 1.871599999999999930e+00 4.718869999999999898e+00 3.870680000000000121e+00 1.173729999999999940e+00 9.583320000000000505e+00 4.014020000000000366e+00 6.773869999999999614e+00 4.143620000000000303e+00 3.609339999999999993e+00 6.183329999999999771e+00 9.866820000000000590e+00 8.724489999999999412e+00 1.694090000000000096e+00 6.985339999999999883e+00 9.574930000000000163e+00 1.134360000000000035e+00 1.903259999999999952e+00 9.251200000000000756e+00 6.597540000000000404e+00 6.583949999999999747e+00 9.112669999999999604e+00 6.706229999999999691e+00 1.066040000000000099e+00 4.210700000000000109e+00 3.696340000000000181e+00 1.052880000000000038e+00 3.547079999999999789e+00 4.042069999999999830e+00 6.317120000000000068e+00 3.898690000000000211e+00 9.271660000000000679e+00 6.468500000000000361e-01 3.963439999999999852e+00 8.828490000000000393e+00 6.101440000000000197e+00 9.531470000000000553e+00 4.212110000000000021e+00 1.370759999999999978e+00 8.938040000000000873e+00 4.056910000000000238e+00 6.217489999999999739e+00 8.606310000000000571e+00 9.460409999999999542e+00 4.049200000000000021e-01 9.080209999999999226e+00 9.184960000000000235e+00 7.961090000000000444e+00 1.579380000000000006e+00 1.722639999999999949e+00 3.893600000000000172e+00 1.096940000000000026e+00 1.308470000000000022e+00 9.054869999999999308e+00 1.518359999999999932e+00 6.768880000000000230e+00 3.564700000000000202e+00 1.372829999999999995e+00 6.897759999999999891e+00 9.232329999999999259e+00 6.261190000000000033e+00 1.110119999999999996e+00 3.559270000000000156e+00 6.378610000000000113e+00 1.733109999999999928e+00 9.325630000000000308e+00 6.761339999999999684e+00 6.323889999999999567e+00 3.590460000000000207e+00 6.167019999999999946e+00 6.531539999999999679e+00 8.697749999999999204e+00 1.833059999999999912e+00 3.796479999999999855e+00 1.855709999999999971e+00 1.229570000000000052e+00 4.230319999999999858e+00 7.108430000000000248e+00 9.087100000000000177e-01 9.195190000000000197e+00 1.210090000000000110e+00 1.227579999999999893e+00 9.279329999999999856e+00 6.852739999999999831e+00 6.783030000000000115e+00 3.808240000000000069e+00 1.478040000000000020e+00 6.882780000000000342e+00 3.702409999999999979e+00 6.674240000000000173e+00 6.288160000000000416e+00 8.702450000000000685e+00 1.607069999999999999e+00 6.762979999999999769e+00 8.630330000000000723e+00 6.614359999999999573e+00 1.271800000000000042e+00 4.439110000000000333e+00 4.396810000000000329e+00 1.402490000000000014e+00 4.287449999999999761e+00 9.486700000000000799e+00 1.262110000000000065e+00 9.364610000000000767e+00 4.167259999999999742e+00 1.274759999999999893e+00 9.169729999999999492e+00 9.430920000000000414e+00 6.370090000000000252e+00 3.450460000000000083e+00 3.992690000000000072e+00 6.480269999999999975e+00 4.381039999999999601e+00 9.583259999999999224e+00 6.328520000000000145e+00 8.653370000000000672e+00 4.239700000000000024e+00 6.635530000000000150e+00 9.570850000000000080e+00 9.335029999999999717e+00 1.596440000000000081e+00 1.745570000000000066e+00 8.445899999999999519e-01 7.678300000000000125e-01 2.135250000000000092e+00 6.280660000000000132e+00 1.363790000000000058e+00 6.245989999999999931e+00 1.265730000000000022e+00 1.396660000000000013e+00 6.727369999999999628e+00 6.382649999999999935e+00 6.675810000000000244e+00 1.309139999999999970e+00 1.060699999999999976e+00 6.065430000000000099e+00 1.127080000000000082e+00 6.693629999999999747e+00 6.750169999999999781e+00 6.542910000000000004e+00 9.984499999999999487e-01 6.702119999999999855e+00 6.030870000000000175e+00 6.283680000000000376e+00
5.202919999999999767e+00 2.854249999999999954e+00 2.427080000000000126e+00 5.250399999999999956e+00 2.277179999999999982e+00 7.719920000000000115e+00 4.952490000000000059e+00 7.604969999999999786e+00 2.621820000000000039e+00 5.091700000000000337e+00 8.223869999999999791e+00 7.994710000000000427e+00 1.025998000000000054e+01 2.464729999999999865e+00 2.470089999999999897e+00 1.010809000000000069e+01 2.107279999999999820e+00 8.091670000000000584e+00 1.000201999999999991e+01 7.954649999999999999e+00 1.973670000000000035e+00 4.218000000000000083e-01 7.884129999999999860e+00 8.105409999999999116e+00 2.825800000000000090e+00 2.381699999999999928e-01 3.067190000000000083e+00 2.633840000000000181e+00 3.995799999999999907e-01 7.996080000000000076e+00 2.222939999999999916e+00 5.077300000000000146e+00 2.909209999999999852e+00 2.715850000000000097e+00 5.501000000000000334e+00 8.007369999999999877e+00 7.584609999999999630e+00 1.863499999999999879e-01 2.291510000000000158e+00 7.693749999999999645e+00 9.951510000000000744e+00 7.248380000000000045e+00 7.426989999999999981e+00 5.448450000000000237e+00 2.904479999999999951e+00 8.132830000000000226e+00 5.453579999999999650e+00 8.014079999999999870e+00 2.250900000000000123e+00 2.529520000000000213e+00 5.576069999999999638e+00 2.710020000000000095e+00 2.623120000000000118e+00 1.066694000000000031e+01 2.222480000000000011e+00 7.598399999999999821e+00 5.333669999999999689e+00 2.841060000000000141e+00 8.026579999999999160e+00 1.654799999999999882e-01 7.414150000000000240e+00 2.769340000000000135e+00 5.317260000000000097e+00 7.787609999999999921e+00 2.949720000000000120e+00 1.039784000000000042e+01 8.105359999999999232e+00 7.527720000000000411e+00 5.491389999999999993e+00 7.566259999999999764e+00 7.611640000000000406e+00 1.049883999999999951e+01 5.346269999999999634e+00 1.021787999999999919e+01 5.075859999999999594e+00 5.148279999999999745e+00 3.691900000000000182e-01 1.059703999999999979e+01 4.780800000000000161e+00 5.230540000000000411e+00 5.249259999999999593e+00 5.160099999999999909e+00 5.412939999999999863e+00 1.054443999999999981e+01 1.019927999999999990e+01 1.036068000000000033e+01 4.650970000000000049e+00 2.459999999999999947e-03 1.809199999999999975e-01 3.721000000000000002e-02 3.200000000000000262e-04 5.025220000000000020e+00 5.235920000000000130e+00 4.936999999999999722e-02 5.183569999999999567e+00 1.145000000000000011e-02 8.538099999999999579e-01 6.547180000000000000e+00 3.920970000000000066e+00 6.344739999999999824e+00 4.104180000000000383e+00 1.447929999999999939e+00 3.724089999999999900e+00 8.698949999999999960e+00 4.346770000000000245e+00 4.098670000000000258e+00 9.284380000000000521e+00 9.476860000000000284e+00 6.343860000000000277e+00 4.177570000000000228e+00 4.077510000000000190e+00 1.452110000000000012e+00 4.168779999999999930e+00 9.268980000000000885e+00 9.167360000000000397e+00 9.206409999999999982e+00 5.990339999999999776e+00 3.863189999999999902e+00 1.712439999999999962e+00 1.620649999999999924e+00 3.473910000000000053e+00 2.201020000000000199e+00 7.140209999999999724e+00 3.826519999999999921e+00 6.599429999999999907e+00 1.250399999999999956e+00 4.057109999999999772e+00 6.570850000000000080e+00 6.600939999999999586e+00 9.025690000000000879e+00 1.450749999999999984e+00 9.858869999999999578e+00 8.842100000000000293e+00 1.714110000000000023e+00 6.454710000000000392e+00 9.494450000000000500e+00 8.648659999999999570e+00 2.109099999999999864e-01 9.484120000000000772e+00 6.519099999999999895e+00 6.789769999999999861e+00 3.734199999999999964e+00 1.059350000000000014e+00 4.599470000000000169e+00 4.023089999999999833e+00 1.789860000000000007e+00 9.480460000000000775e+00 6.055450000000000443e+00 6.887419999999999654e+00 3.973129999999999828e+00 4.720170000000000421e+00 7.162119999999999820e+00 9.568939999999999557e+00 8.801610000000000156e+00 1.709149999999999947e+00 3.979999999999999982e+00 6.127329999999999721e+00 7.417599999999999749e-01 9.026640000000000441e+00 8.833149999999999835e+00 6.170799999999999841e+00 4.220650000000000013e+00 9.513379999999999725e+00 6.497390000000000221e+00 9.301569999999999894e+00 3.885829999999999895e+00 4.030840000000000423e+00 8.193500000000000227e-01 3.253460000000000019e+00 4.280529999999999724e+00 6.269989999999999952e+00 4.116030000000000300e+00 9.445589999999999264e+00 1.684879999999999933e+00 6.373050000000000104e+00 8.759510000000000574e+00 6.199019999999999975e+00 8.984579999999999345e+00 6.344920000000000115e+00 1.452749999999999986e+00 8.698859999999999815e+00 4.373560000000000336e+00 5.894919999999999938e+00 9.098319999999999297e+00 9.238950000000000884e+00 8.409969999999999501e+00 2.115979999999999972e+00 8.667220000000000368e+00 7.385959999999999859e+00 1.265069999999999917e+00 8.069699999999999651e-01 6.410689999999999777e+00 1.422779999999999934e+00 1.278629999999999933e+00 9.989700000000000246e-01 1.448809999999999931e+00 6.227299999999999613e+00 6.237610000000000099e+00 9.112400000000000500e-01 6.224569999999999936e+00 1.312400000000000011e+00 6.274049999999999905e+00 1.556389999999999940e+00 4.057299999999999685e+00 6.404840000000000089e+00 1.542289999999999939e+00 1.090600000000000014e+00 6.365400000000000169e+00 9.660220000000000695e+00 3.463750000000000107e+00 7.183889999999999887e+00 5.715539999999999843e+00 9.801220000000000709e+00 1.406770000000000076e+00 3.831960000000000033e+00 1.514710000000000001e+00 9.348999999999999533e-01 3.198960000000000026e+00 6.744830000000000325e+00 1.077860000000000040e+00 9.105259999999999465e+00 1.185130000000000017e+00 4.515489999999999782e+00 9.923590000000000799e+00 7.115240000000000009e+00 3.576159999999999783e+00 3.532669999999999977e+00 3.555590000000000028e+00 6.034679999999999822e+00 3.373029999999999973e+00 9.498110000000000497e+00 9.689790000000000347e+00 4.753000000000000003e-01 1.937570000000000014e+00 8.870459999999999567e+00 8.955439999999999401e+00 3.541519999999999779e+00 9.836599999999999788e-01 3.879719999999999835e+00 3.934959999999999791e+00 4.158280000000000420e+00 4.585799999999999876e+00 9.044299999999999784e+00 1.219389999999999974e+00 9.096569999999999823e+00 4.704799999999999649e+00 1.355429999999999913e+00 9.193199999999999150e+00 9.509420000000000428e+00 6.177699999999999747e+00 3.639619999999999855e+00 6.521250000000000213e+00 9.044890000000000541e+00 3.823900000000000077e+00 8.615990000000000038e+00 6.771419999999999995e+00 9.416470000000000340e+00 4.817799999999999860e-01 6.734820000000000029e+00 8.410660000000000025e+00 9.150420000000000442e+00 1.360980000000000079e+00 1.260049999999999892e+00 4.000820000000000043e+00 1.130970000000000031e+00 9.811600000000000321e-01 9.041359999999999175e+00 3.327859999999999818e+00 6.087950000000000195e+00 4.026030000000000442e+00 2.077749999999999986e+00 6.923060000000000436e+00 9.386419999999999320e+00 9.060980000000000700e+00 3.629599999999999937e+00 1.015870000000000051e+00 6.273740000000000094e+00 1.004410000000000025e+00 6.522490000000000343e+00 6.184160000000000323e+00 6.588860000000000383e+00 1.377159999999999940e+00 6.951500000000000234e+00 6.561869999999999870e+00 7.123079999999999856e+00
5.276419999999999888e+00 2.391799999999999926e+00 3.055149999999999810e+00 5.198550000000000004e+00 2.845720000000000027e+00 8.139440000000000452e+00 5.156740000000000101e+00 8.016859999999999431e+00 2.995480000000000143e+00 5.445269999999999833e+00 8.108280000000000598e+00 8.532379999999999853e+00 1.051638999999999946e+01 2.820790000000000131e+00 2.812990000000000101e+00 1.034348999999999918e+01 2.560529999999999973e+00 7.939400000000000013e+00 3.830999999999999683e-02 7.967909999999999826e+00 2.516189999999999927e+00 2.686499999999999999e-01 8.009809999999999874e+00 7.832760000000000389e+00 2.298830000000000151e+00 2.257500000000000062e-01 2.611120000000000108e+00 2.703059999999999796e+00 1.640099999999999891e-01 8.296010000000000773e+00 2.765979999999999883e+00 5.427120000000000388e+00 2.717020000000000213e+00 2.128169999999999895e+00 5.312800000000000189e+00 7.582889999999999908e+00 8.398880000000000123e+00 1.767900000000000027e-01 2.603549999999999809e+00 7.932129999999999903e+00 6.500000000000000222e-02 8.121190000000000353e+00 7.397979999999999556e+00 5.552019999999999733e+00 2.861219999999999875e+00 8.405820000000000292e+00 5.194989999999999775e+00 8.359270000000000422e+00 2.559699999999999864e+00 2.370919999999999916e+00 5.267039999999999722e+00 2.524379999999999846e+00 2.562930000000000152e+00 1.069366999999999912e+01 2.293509999999999938e+00 7.995420000000000194e+00 5.216870000000000118e+00 3.285060000000000091e+00 7.742329999999999934e+00 3.404000000000000081e-02 7.477149999999999963e+00 2.843560000000000088e+00 5.296479999999999855e+00 7.895579999999999821e+00 3.110279999999999934e+00 1.084126999999999974e+01 8.081939999999999458e+00 7.380760000000000431e+00 5.660800000000000054e+00 8.302350000000000563e+00 8.024259999999999948e+00 1.050487000000000037e+01 5.347229999999999706e+00 1.028429000000000038e+01 5.840390000000000192e+00 5.752119999999999678e+00 2.766000000000000056e-02 5.468600000000000128e-01 4.847220000000000084e+00 5.633130000000000415e+00 6.125020000000000131e+00 5.243680000000000341e+00 5.474630000000000329e+00 1.082286999999999999e+01 1.045848999999999940e+01 7.879999999999999505e-02 5.352909999999999613e+00 1.042219000000000051e+01 2.998000000000000109e-01 1.066156999999999933e+01 1.033358999999999916e+01 5.025450000000000195e+00 4.982079999999999842e+00 4.173899999999999832e-01 5.748630000000000351e+00 1.080587000000000053e+01 4.490520000000000067e+00 4.147409999999999819e+00 2.720040000000000013e+00 3.882229999999999848e+00 4.434549999999999770e+00 7.855949999999999989e+00 3.662640000000000118e+00 9.560810000000000031e+00 4.496380000000000265e+00 4.659159999999999968e+00 9.116329999999999600e+00 1.028447000000000067e+01 9.478659999999999641e+00 4.355489999999999640e+00 3.472729999999999873e+00 8.515349999999999753e+00 3.535439999999999916e+00 7.223880000000000301e+00 9.205360000000000653e+00 9.736010000000000275e+00 4.006420000000000314e+00 3.912469999999999892e+00 1.114419999999999966e+00 9.842899999999999983e-01 3.733989999999999920e+00 1.407550000000000079e+00 6.280780000000000030e+00 3.554640000000000022e+00 5.926389999999999603e+00 7.758500000000000396e-01 3.257960000000000189e+00 6.920300000000000118e+00 6.654630000000000045e+00 9.750830000000000553e+00 2.354389999999999983e+00 1.000240000000000018e+00 9.201090000000000657e+00 1.142020000000000035e+00 6.337360000000000326e+00 9.741080000000000183e+00 6.069819999999999993e+00 1.463619999999999921e+00 9.253529999999999589e+00 8.661310000000000286e+00 6.886870000000000047e+00 3.500300000000000189e+00 1.665550000000000086e+00 3.597929999999999851e+00 3.814179999999999904e+00 1.401000000000000023e+00 9.218540000000000845e+00 3.863750000000000018e+00 6.781979999999999897e+00 3.723520000000000163e+00 4.256470000000000198e+00 6.797679999999999723e+00 9.325969999999999871e+00 8.701790000000000802e+00 1.955689999999999928e+00 3.662770000000000081e+00 9.220660000000000522e+00 1.189699999999999980e+00 9.015129999999999200e+00 9.329269999999999285e+00 6.872620000000000395e+00 3.990810000000000191e+00 9.488400000000000389e+00 6.929570000000000007e+00 9.005050000000000665e+00 4.382179999999999964e+00 3.738989999999999814e+00 1.074717000000000056e+01 3.444150000000000045e+00 4.484849999999999781e+00 5.562960000000000349e+00 3.407259999999999955e+00 9.027770000000000294e+00 1.770100000000000007e+00 3.995000000000000107e+00 9.343099999999999739e+00 7.272540000000000227e+00 9.150550000000000850e+00 4.330799999999999983e+00 1.004532000000000025e+01 8.928240000000000620e+00 5.544139999999999624e+00 6.061289999999999623e+00 8.872719999999999274e+00 9.000569999999999737e+00 1.236590000000000078e+00 9.578649999999999665e+00 9.272259999999999280e+00 9.451999999999999957e+00 9.727900000000000436e-01 1.221230000000000038e+00 4.128440000000000332e+00 1.163669999999999982e+00 1.205019999999999980e+00 9.206759999999999167e+00 1.134900000000000020e+00 6.689239999999999853e+00 3.561669999999999892e+00 1.527689999999999992e+00 6.538289999999999935e+00 9.062450000000000117e+00 6.204369999999999941e+00 1.232529999999999903e+00 4.763690000000000424e+00 6.633420000000000094e+00 1.377529999999999921e+00 1.024497000000000035e+01 6.133899999999999686e+00 6.054400000000000226e+00 4.799080000000000013e+00 6.645010000000000083e+00 6.973849999999999660e+00 9.956480000000000885e+00 1.564899999999999958e+00 4.502559999999999896e+00 9.036800000000000388e-01 2.938500000000000001e-01 3.483859999999999957e+00 6.210569999999999702e+00 9.669699999999999962e-01 9.847500000000000142e+00 1.543120000000000047e+00 1.039679999999999938e+00 9.227790000000000603e+00 6.189090000000000202e+00 7.116439999999999877e+00 4.510469999999999757e+00 1.097320000000000073e+00 6.038269999999999804e+00 3.842799999999999994e+00 6.552520000000000344e+00 6.525369999999999671e+00 9.662150000000000460e+00 2.252149999999999874e+00 6.884420000000000428e+00 9.304100000000000037e+00 6.789229999999999876e+00 1.496340000000000003e+00 3.745760000000000201e+00 3.660039999999999960e+00 1.584710000000000063e+00 3.494409999999999794e+00 8.300769999999999982e+00 9.638499999999999845e-01 9.153389999999999915e+00 3.643639999999999990e+00 2.072010000000000129e+00 8.925209999999999866e+00 9.084630000000000649e+00 6.758270000000000444e+00 3.792920000000000069e+00 3.926169999999999938e+00 6.538109999999999644e+00 4.061829999999999607e+00 9.366730000000000445e+00 6.184280000000000221e+00 8.863739999999999952e+00 4.484750000000000014e+00 7.073920000000000208e+00 9.411870000000000402e+00 9.710879999999999512e+00 1.563909999999999911e+00 1.681890000000000107e+00 1.108689999999999953e+00 1.066780000000000062e+00 1.283029999999999893e+00 6.827609999999999957e+00 1.436949999999999950e+00 7.307959999999999567e+00 8.857800000000000118e-01 8.543899999999999828e-01 6.275079999999999991e+00 6.431429999999999758e+00 6.900900000000000034e+00 1.765959999999999974e+00 1.853969999999999896e+00 6.861270000000000202e+00 1.671059999999999990e+00 7.666479999999999961e+00 6.132100000000000328e+00 7.062610000000000277e+00 1.909640000000000004e+00 6.854680000000000106e+00 6.567820000000000213e+00 7.650070000000000370e+00