-9.151196245999999519e+02
-9.331193961300000410e+02
-9.214865785499999902e+02
-9.024683935299999575e+02
-9.337977553599999965e+02
-8.981079969099999971e+02
-9.297424913099999912e+02
-9.471315045500000451e+02
-9.061058769400000301e+02
-9.329804143400000385e+02
-9.130284183500000381e+02
-9.372337960199999998e+02
-9.291668275900000253e+02
-9.151449006499999541e+02
-9.314176100399999996e+02
-8.963658748100000366e+02
-9.335096085500000527e+02
-9.080665633300000081e+02
-9.167214037100000041e+02
-9.296201630199999499e+02
-9.153200782699999536e+02
-9.231810768499999540e+02
-9.327559447999999520e+02
-9.087787865200000397e+02
-9.241929111800000101e+02
-9.073215969899999891e+02
-9.348085475599999654e+02
-9.392998046699999577e+02
-9.097354744000000437e+02
-9.111026815300000408e+02
-9.068540614500000174e+02
-9.286480043100000330e+02
-8.947309192200000325e+02
-9.478276324700000259e+02
-9.019293805900000507e+02
-9.028581846099999666e+02
-9.341358338600000479e+02
-9.003439705199999707e+02
-9.053708570000000009e+02
-9.065327712700000120e+02
-9.271562789399999929e+02
-8.899147679200000312e+02
-9.263939168599999903e+02
-9.327413972000000513e+02
-8.991015852799999948e+02
-9.073428270000000566e+02
-9.167403689599999552e+02
-9.361778438999999707e+02
-9.044637335400000211e+02
-9.131888146999999663e+02
-9.090855416000000560e+02
-9.298888252199999442e+02
-9.499720910800000411e+02
-9.327364678200000299e+02
-9.201618462300000374e+02
-9.275489665600000535e+02
-9.290888528200000565e+02
-9.341594174199999543e+02
-9.187188328400000046e+02
-9.023221631400000433e+02
-8.947456531399999449e+02
-9.389919026899999608e+02
-9.198631361200000356e+02
-9.402543505899999445e+02
-9.482351486400000340e+02
-9.147098162500000171e+02
-9.368143243700000085e+02
-9.107588558600000397e+02
-9.323510017500000231e+02
-8.989202465399999937e+02
-8.975780893600000354e+02
-9.136864407399999664e+02
-9.061832471400000486e+02
-9.040943536900000481e+02
-9.158973840500000279e+02
-9.434420390499999485e+02
-9.277121091400000523e+02
-9.271125892300000260e+02
-9.116959291199999598e+02
-9.296259209999999484e+02
-9.039801725500000202e+02
-9.324556058399999756e+02
-9.159493141299999479e+02
-9.415478781799999979e+02
-9.154158256800000117e+02
-9.133701432300000533e+02
-9.321051673199999641e+02
-9.415198199599999498e+02
-9.035150447900000472e+02
-9.062575412800000549e+02
-9.359100669299999709e+02
-8.939731438899999603e+02
-9.345781557999999904e+02
-8.865900952499999903e+02
-9.397585080799999560e+02
-9.015667759399999568e+02
-9.357353557200000296e+02
-8.826848956400000361e+02
-9.092780383499999743e+02
-9.257961863499999708e+02
