-9.224752808099999584e+02
-9.250418678099999852e+02
-9.312976476100000127e+02
-9.255147166299999526e+02
-9.274217026799999530e+02
-9.208302258600000414e+02
-9.236087531700000000e+02
-9.219542338799999470e+02
-9.217922566199999892e+02
-9.489777214599999979e+02
-9.315373983599999974e+02
-9.299224661399999832e+02
-9.260249965100000509e+02
-9.233384159900000441e+02
-9.252750187200000482e+02
-9.279070973999999978e+02
-9.225054347300000472e+02
-9.219100436600000421e+02
-9.218482493200000363e+02
-9.318854881600000226e+02
-9.206782307099999798e+02
-9.201587279699999726e+02
-9.322341165699999692e+02
-9.316271786999999449e+02
-9.289012580200000002e+02
-9.331949058400000467e+02
-9.267726496699999643e+02
-9.361690997900000184e+02
-9.247934771100000262e+02
-9.580753104399999529e+02
-9.208443221600000470e+02
-9.443734344299999748e+02
-9.219444461199999523e+02
-9.186139054000000215e+02
-9.232339085700000396e+02
-9.226752963200000295e+02
-9.294722125099999630e+02
-9.391037888399999929e+02
-9.274315469399999756e+02
-9.222149365899999793e+02
-9.387018518300000096e+02
-9.464868770699999914e+02
-9.413028495099999873e+02
-9.482893984300000056e+02
-9.539482534400000304e+02
-9.388814930300000015e+02
-9.382811942199999748e+02
-9.337464904400000023e+02
-9.227062822000000324e+02
-9.336635288799999444e+02
-9.485550820199999862e+02
-9.224596698599999627e+02
-9.443447908499999812e+02
-9.333795836399999644e+02
-9.317592218099999855e+02
-9.201992271599999640e+02
-9.388886730599999737e+02
-9.353797192399999858e+02
-9.371351287999999613e+02
-9.298011315899999545e+02
-9.226541126500000018e+02
-9.227058729499999572e+02
-9.330573433199999727e+02
-9.337079403799999682e+02
-9.371972996299999750e+02
-9.260100142000000005e+02
-9.333377954600000521e+02
-9.200041677299999492e+02
-9.373124729800000523e+02
-9.226095433199999434e+02
-9.296198379400000249e+02
-9.494365646899999547e+02
-9.341796840499999917e+02
-9.247122047999999950e+02
-9.505835427800000161e+02
-9.327780934200000047e+02
-9.302335553399999526e+02
-9.185598189300000058e+02
-9.255289024100000006e+02
-9.217808238000000074e+02
-9.314704577400000289e+02
-9.406364399599999615e+02
-9.409314950899999985e+02
-9.370425982499999691e+02
-9.231044101899999532e+02
-9.407858673900000213e+02
-9.224649059500000021e+02
-9.397943402600000127e+02
-9.336639856199999485e+02
-9.318017836899999793e+02
-9.380933974600000056e+02
-9.428288786599999867e+02
-9.312246364799999583e+02
-9.348415996100000029e+02
-9.332568017600000303e+02
-9.427088868900000307e+02
-9.201834665799999584e+02
-9.272230477299999620e+02
-9.274821822300000349e+02
-9.223307364500000176e+02
