1.015936815899999957e+01 0.000000000000000000e+00 0.000000000000000000e+00 -2.063415899999999914e-02 1.052790642100000085e+01 0.000000000000000000e+00 1.099322699999999951e-02 1.376410000000000003e-03 1.009547911399999975e+01
1.015107569000000076e+01 0.000000000000000000e+00 0.000000000000000000e+00 -2.061731699999999959e-02 1.051931313599999918e+01 0.000000000000000000e+00 1.098425400000000059e-02 1.375286000000000087e-03 1.008723879399999923e+01
1.020128708300000042e+01 0.000000000000000000e+00 0.000000000000000000e+00 -2.071929900000000005e-02 1.057134598300000050e+01 0.000000000000000000e+00 1.103858700000000075e-02 1.382088999999999974e-03 1.013713442299999912e+01
1.017675001099999932e+01 0.000000000000000000e+00 0.000000000000000000e+00 -2.066946299999999903e-02 1.054591881099999995e+01 0.000000000000000000e+00 1.101203599999999935e-02 1.378764999999999895e-03 1.011275165700000045e+01
1.017105669400000068e+01 0.000000000000000000e+00 0.000000000000000000e+00 -2.065789900000000040e-02 1.054001896499999980e+01 0.000000000000000000e+00 1.100587500000000003e-02 1.377993000000000100e-03 1.010709414299999942e+01
1.016338054000000035e+01 0.000000000000000000e+00 0.000000000000000000e+00 -2.064230900000000105e-02 1.053206435300000088e+01 0.000000000000000000e+00 1.099756900000000044e-02 1.376952999999999988e-03 1.009946626199999997e+01
1.017352093500000088e+01 0.000000000000000000e+00 0.000000000000000000e+00 -2.066290399999999930e-02 1.054257259799999957e+01 0.000000000000000000e+00 1.100854199999999963e-02 1.378326999999999938e-03 1.010954288800000000e+01
1.017965505499999956e+01 0.000000000000000000e+00 0.000000000000000000e+00 -2.067536299999999869e-02 1.054892923699999940e+01 0.000000000000000000e+00 1.101517899999999994e-02 1.379157999999999903e-03 1.011563843100000071e+01
1.015637963100000007e+01 0.000000000000000000e+00 0.000000000000000000e+00 -2.062809000000000170e-02 1.052480948100000013e+01 0.000000000000000000e+00 1.098999399999999946e-02 1.376005000000000023e-03 1.009250937899999911e+01
1.017635026199999970e+01 0.000000000000000000e+00 0.000000000000000000e+00 -2.066865099999999969e-02 1.054550456099999955e+01 0.000000000000000000e+00 1.101160300000000002e-02 1.378710999999999912e-03 1.011235442199999923e+01
1.018292998399999938e+01 0.000000000000000000e+00 0.000000000000000000e+00 -2.068201500000000151e-02 1.055232296600000019e+01 0.000000000000000000e+00 1.101872299999999937e-02 1.379601999999999955e-03 1.011889276500000001e+01
1.020778990400000019e+01 0.000000000000000000e+00 0.000000000000000000e+00 -2.073250600000000124e-02 1.057808469799999962e+01 0.000000000000000000e+00 1.104562400000000041e-02 1.382970000000000076e-03 1.014359634999999926e+01
1.021115327100000059e+01 0.000000000000000000e+00 0.000000000000000000e+00 -2.073933700000000005e-02 1.058157007299999997e+01 0.000000000000000000e+00 1.104926300000000014e-02 1.383426000000000100e-03 1.014693856499999924e+01
1.019463019800000048e+01 0.000000000000000000e+00 0.000000000000000000e+00 -2.070577800000000107e-02 1.056444761500000062e+01 0.000000000000000000e+00 1.103138399999999998e-02 1.381187000000000083e-03 1.013051940100000081e+01
1.016540756200000040e+01 0.000000000000000000e+00 0.000000000000000000e+00 -2.064642599999999897e-02 1.053416490699999919e+01 0.000000000000000000e+00 1.099976299999999921e-02 1.377228000000000089e-03 1.010148053700000048e+01
1.020366374700000023e+01 0.000000000000000000e+00 0.000000000000000000e+00 -2.072412599999999896e-02 1.057380886199999992e+01 0.000000000000000000e+00 1.104115900000000004e-02 1.382411000000000056e-03 1.013949614100000041e+01
1.016984631599999922e+01 0.000000000000000000e+00 0.000000000000000000e+00 -2.065544100000000008e-02 1.053876467899999980e+01 0.000000000000000000e+00 1.100456600000000035e-02 1.377828999999999903e-03 1.010589137700000073e+01
1.019174566000000048e+01 0.000000000000000000e+00 0.000000000000000000e+00 -2.069992000000000013e-02 1.056145843800000073e+01 0.000000000000000000e+00 1.102826200000000048e-02 1.380796000000000107e-03 1.012765300300000071e+01
1.019604655600000065e+01 0.000000000000000000e+00 0.000000000000000000e+00 -2.070865499999999942e-02 1.056591535199999932e+01 0.000000000000000000e+00 1.103291600000000025e-02 1.381379000000000070e-03 1.013192685199999943e+01
1.019593725200000023e+01 0.000000000000000000e+00 0.000000000000000000e+00 -2.070843299999999831e-02 1.056580208199999937e+01 0.000000000000000000e+00 1.103279799999999991e-02 1.381363999999999943e-03 1.013181823500000078e+01
1.018759099000000035e+01 0.000000000000000000e+00 0.000000000000000000e+00 -2.069148100000000115e-02 1.055715305400000048e+01 0.000000000000000000e+00 1.102376700000000029e-02 1.380233000000000024e-03 1.012352446000000050e+01
1.020901669799999922e+01 0.000000000000000000e+00 0.000000000000000000e+00 -2.073499800000000101e-02 1.057935599500000023e+01 0.000000000000000000e+00 1.104695099999999930e-02 1.383136000000000088e-03 1.014481542899999944e+01
1.018033883700000075e+01 0.000000000000000000e+00 0.000000000000000000e+00 -2.067675199999999963e-02 1.054963782499999958e+01 0.000000000000000000e+00 1.101591900000000075e-02 1.379250999999999958e-03 1.011631791399999969e+01
1.016143237500000041e+01 0.000000000000000000e+00 0.000000000000000000e+00 -2.063835199999999870e-02 1.053004551699999958e+01 0.000000000000000000e+00 1.099546099999999978e-02 1.376688999999999951e-03 1.009753034799999938e+01
1.018718473400000057e+01 0.000000000000000000e+00 0.000000000000000000e+00 -2.069065600000000171e-02 1.055673206099999994e+01 0.000000000000000000e+00 1.102332699999999943e-02 1.380177999999999917e-03 1.012312075900000075e+01
1.015771192000000056e+01 0.000000000000000000e+00 0.000000000000000000e+00 -2.063079500000000038e-02 1.052619010000000088e+01 0.000000000000000000e+00 1.099143500000000079e-02 1.376185000000000038e-03 1.009383329099999926e+01
1.025012507499999970e+01 0.000000000000000000e+00 0.000000000000000000e+00 -2.081849100000000147e-02 1.062195560700000030e+01 0.000000000000000000e+00 1.109143400000000071e-02 1.388705999999999968e-03 1.018566528799999915e+01
1.018145584300000017e+01 0.000000000000000000e+00 0.000000000000000000e+00 -2.067902099999999882e-02 1.055079535099999966e+01 0.000000000000000000e+00 1.101712799999999930e-02 1.379402000000000059e-03 1.011742789500000050e+01
1.016679121900000027e+01 0.000000000000000000e+00 0.000000000000000000e+00 -2.064923600000000137e-02 1.053559875700000070e+01 0.000000000000000000e+00 1.100126000000000055e-02 1.377415000000000106e-03 1.010285549199999977e+01
1.018346879099999924e+01 0.000000000000000000e+00 0.000000000000000000e+00 -2.068310900000000160e-02 1.055288131900000081e+01 0.000000000000000000e+00 1.101930599999999955e-02 1.379674999999999912e-03 1.011942818400000021e+01
1.020539586800000009e+01 0.000000000000000000e+00 0.000000000000000000e+00 -2.072764399999999993e-02 1.057560381699999930e+01 0.000000000000000000e+00 1.104303300000000071e-02 1.382645999999999962e-03 1.014121736899999959e+01
1.018007861000000069e+01 0.000000000000000000e+00 0.000000000000000000e+00 -2.067622300000000052e-02 1.054936815800000005e+01 0.000000000000000000e+00 1.101563799999999947e-02 1.379215999999999949e-03 1.011605932299999999e+01
1.021883138799999990e+01 0.000000000000000000e+00 0.000000000000000000e+00 -2.075493200000000024e-02 1.058952672000000028e+01 0.000000000000000000e+00 1.105757100000000041e-02 1.384465999999999995e-03 1.015456839700000025e+01
1.016417215100000071e+01 0.000000000000000000e+00 0.000000000000000000e+00 -2.064391599999999827e-02 1.053288468000000044e+01 0.000000000000000000e+00 1.099842600000000038e-02 1.377060999999999953e-03 1.010025289400000048e+01
1.024495698800000021e+01 0.000000000000000000e+00 0.000000000000000000e+00 -2.080799399999999980e-02 1.061660004400000012e+01 0.000000000000000000e+00 1.108584100000000079e-02 1.388006000000000005e-03 1.018052970099999932e+01
1.021134036099999953e+01 0.000000000000000000e+00 0.000000000000000000e+00 -2.073971700000000126e-02 1.058176395099999922e+01 0.000000000000000000e+00 1.104946499999999963e-02 1.383450999999999952e-03 1.014712447900000036e+01
1.015317457899999987e+01 0.000000000000000000e+00 0.000000000000000000e+00 -2.062158000000000047e-02 1.052148816400000086e+01 0.000000000000000000e+00 1.098652599999999993e-02 1.375570999999999912e-03 1.008932448300000040e+01
1.016113044699999968e+01 0.000000000000000000e+00 0.000000000000000000e+00 -2.063773899999999870e-02 1.052973263600000031e+01 0.000000000000000000e+00 1.099513400000000016e-02 1.376648999999999972e-03 1.009723031899999945e+01
1.015832145799999964e+01 0.000000000000000000e+00 0.000000000000000000e+00 -2.063203300000000101e-02 1.052682174899999978e+01 0.000000000000000000e+00 1.099209500000000034e-02 1.376267999999999936e-03 1.009443899500000086e+01
1.023990289600000025e+01 0.000000000000000000e+00 0.000000000000000000e+00 -2.079772900000000091e-02 1.061136261200000064e+01 0.000000000000000000e+00 1.108037199999999979e-02 1.387320999999999954e-03 1.017550739300000018e+01
1.018514344999999999e+01 0.000000000000000000e+00 0.000000000000000000e+00 -2.068651000000000170e-02 1.055461672799999917e+01 0.000000000000000000e+00 1.102111799999999989e-02 1.379901999999999908e-03 1.012109231200000004e+01
1.017273290500000016e+01 0.000000000000000000e+00 0.000000000000000000e+00 -2.066130399999999839e-02 1.054175598199999975e+01 0.000000000000000000e+00 1.100768899999999932e-02 1.378220000000000096e-03 1.010875981300000070e+01
1.016778803899999950e+01 0.000000000000000000e+00 0.000000000000000000e+00 -2.065126100000000062e-02 1.053663173700000044e+01 0.000000000000000000e+00 1.100233800000000040e-02 1.377551000000000079e-03 1.010384604300000078e+01
1.017171313100000063e+01 0.000000000000000000e+00 0.000000000000000000e+00 -2.065923299999999907e-02 1.054069921500000007e+01 0.000000000000000000e+00 1.100658600000000049e-02 1.378082000000000092e-03 1.010774645200000066e+01
1.017826888699999976e+01 0.000000000000000000e+00 0.000000000000000000e+00 -2.067254799999999892e-02 1.054749278499999932e+01 0.000000000000000000e+00 1.101367999999999965e-02 1.378971000000000103e-03 1.011426098099999926e+01
1.015608935999999929e+01 0.000000000000000000e+00 0.000000000000000000e+00 -2.062750000000000000e-02 1.052450868000000028e+01 0.000000000000000000e+00 1.098967999999999993e-02 1.375965999999999951e-03 1.009222093400000020e+01
1.018667049099999922e+01 0.000000000000000000e+00 0.000000000000000000e+00 -2.068961199999999959e-02 1.055619916300000050e+01 0.000000000000000000e+00 1.102277100000000065e-02 1.380109000000000023e-03 1.012260975000000052e+01
1.021095683599999937e+01 0.000000000000000000e+00 0.000000000000000000e+00 -2.073893799999999843e-02 1.058136651300000075e+01 0.000000000000000000e+00 1.104904999999999950e-02 1.383399000000000000e-03 1.014674336600000082e+01
1.016830568900000031e+01 0.000000000000000000e+00 0.000000000000000000e+00 -2.065231199999999906e-02 1.053716816500000064e+01 0.000000000000000000e+00 1.100289900000000001e-02 1.377621000000000097e-03 1.010436043800000050e+01
1.018031963500000003e+01 0.000000000000000000e+00 0.000000000000000000e+00 -2.067671299999999934e-02 1.054961792499999973e+01 0.000000000000000000e+00 1.101589899999999914e-02 1.379248000000000019e-03 1.011629883200000002e+01
