-4.385724999999999874e+00 -6.625399999999999956e+00 -5.649233999999999867e+00 -1.523716000000000070e+00 -2.795490000000000030e+00 -8.738679999999999781e-01 4.102009999999999823e-01 -4.928199999999999942e-02 -1.736351999999999896e+00 6.622919999999999918e-01 4.304440999999999740e+00 5.969095000000000262e+00 -6.971340000000000314e-01 -2.130662000000000056e+00 -3.579350000000000032e-01 -7.557840000000000114e-01 -7.741749999999999465e-01 -3.735919999999999797e-01 3.281487999999999960e+00 3.146789999999999865e-01 2.324178999999999995e+00 -3.955187000000000008e+00 4.937679999999999847e-01 5.809250000000000247e-01 -2.054540999999999951e+00 -3.856406999999999918e+00 -4.681521000000000043e+00 1.800651000000000002e+00 2.585930000000000173e-01 -8.923720000000000541e-01 2.425453000000000081e+00 -8.216839999999999700e-01 -8.208839999999999471e-01 2.338086000000000109e+00 -1.934909999999999908e+00 -1.065811000000000064e+00 4.703129999999999811e+00 1.115216999999999903e+00 -2.459363999999999884e+00 1.073255999999999988e+00 -1.585759999999999947e-01 2.662472000000000172e+00 -1.227093999999999907e+00 -2.834670000000000245e-01 1.540574000000000110e+00 4.400750000000000384e+00 1.273608999999999991e+00 -9.719389999999999974e-01 -6.128022999999999776e+00 1.977932000000000023e+00 6.200550000000000228e-01 1.326109999999999900e+00 -9.162160000000000304e-01 -3.442737999999999854e+00 1.719238999999999962e+00 -1.296817000000000109e+00 5.463400000000000201e-02 2.446511999999999798e+00 -1.462976000000000054e+00 -8.571889999999999787e-01 4.116069999999999673e+00 -1.000974999999999948e+00 -1.116813000000000056e+00 -1.889248999999999956e+00 -6.946700000000000097e-02 -1.127264000000000044e+00 -1.134331999999999896e+00 1.478042000000000078e+00 -3.511343999999999799e+00 3.221189999999999998e+00 -9.485770000000000035e-01 -7.085080000000000267e-01 8.210399999999999643e-02 6.423259999999999525e-01 3.961180000000000256e-01 -2.943176999999999932e+00 1.419408000000000003e+00 2.853502000000000205e+00 -3.284070000000000045e-01 2.482495000000000118e+00 2.536118999999999790e+00 -3.437895000000000145e+00 3.874245000000000161e+00 -8.914299999999999446e-01 4.408580000000000276e-01 -4.213169999999999860e+00 -5.350639999999999841e-01 -4.944939999999999891e-01 -1.638529999999999986e-01 3.409457000000000182e+00 -1.292192999999999925e+00 -1.474614000000000091e+00 -4.962610000000000077e-01 -2.590019999999999989e+00 1.313255999999999979e+00 -2.323058000000000067e+00 2.482526000000000010e+00 2.144255999999999940e+00 -2.998711999999999822e+00 9.051190000000000069e-01 1.235192000000000068e+00 -2.625439000000000078e+00 -1.200693000000000010e+00 -6.326709999999999834e-01 -2.361100000000000004e-02 -2.861569999999999947e-01 8.816220000000000168e-01 2.071385999999999949e+00 1.853320000000000078e+00 -5.339760000000000062e-01 3.121720000000000050e-01 -1.238820000000000060e-01 2.390292000000000083e+00 -1.885677000000000048e+00 -1.817100000000000104e-01 1.809625000000000039e+00 2.857791999999999888e+00 -8.029180000000000206e-01 6.618270000000000541e-01 6.365500000000000325e-02 -1.273563000000000001e+00 1.319774000000000003e+00 7.728500000000000647e-02 4.716794000000000153e+00 -2.729461000000000137e+00 3.766084000000000209e+00 -1.389075999999999977e+00 -6.737520000000000175e-01 1.008045999999999998e+00 2.374655999999999878e+00 -1.944987000000000021e+00 5.279979999999999674e-01 1.916922999999999933e+00 -1.663215000000000110e+00 -1.880370000000000097e+00 7.074199999999999933e-02 1.905941000000000107e+00 3.579890000000000017e-01 -5.549429999999999641e-01 -1.858435999999999977e+00 -3.703362999999999960e+00 -1.760939999999999950e+00 -3.975999999999999673e-02 1.031012999999999957e+00 9.852769999999999584e-01 2.085043000000000202e+00 -1.456379999999999897e-01 1.731348000000000109e+00 1.227910000000000057e+00 -1.102346000000000048e+00 1.417075000000000085e+00 1.852581999999999951e+00 2.228847000000000023e+00 -7.292499999999999538e-01 5.535060000000000535e-01 -1.661059999999999981e+00 -1.369331999999999994e+00 1.384212999999999916e+00 7.818990000000000107e-01 7.237130000000000507e-01 -6.161200000000000010e-01 -1.621517000000000097e+00 -7.264399999999999746e-01 -9.668619999999999992e-01 1.462906000000000040e+00 -1.489000000000000089e-03 1.314160000000000050e-01 -2.702459999999999862e-01 1.566483999999999988e+00 -9.235630000000000228e-01 -1.532360000000000111e-01 6.778729999999999478e-01 8.814180000000000348e-01 2.378432999999999797e+00 1.024149999999999894e+00 -1.466699999999999948e-01 -1.957357999999999931e+00 -6.338570000000000038e-01 1.671877000000000058e+00 -1.670795999999999948e+00 -2.550698999999999828e+00 -3.351299999999999835e-01 -1.293042999999999942e+00 1.483497999999999983e+00 1.248131000000000101e+00 -6.010210000000000274e-01 -2.453380000000000116e+00 3.319914999999999949e+00 3.862945999999999991e+00 3.939819999999999989e-01 2.685006000000000004e+00 -1.036075999999999997e+00 -2.504983000000000182e+00 -1.944538000000000100e+00 1.654887999999999915e+00 -1.898158999999999930e+00 -3.383889999999999953e-01 1.007166999999999923e+00 1.593714000000000075e+00 -2.957900000000000112e-02 1.331545999999999896e+00 3.700459999999999861e-01 -1.221395999999999926e+00 -9.280220000000000136e-01 -9.039439999999999698e-01 -1.632500000000000062e-01 -1.598046000000000078e+00 5.690450000000000230e-01 4.023649999999999727e-01 -2.024919000000000135e+00 2.556376999999999899e+00 -3.826049999999999951e+00 1.000218999999999969e+00 -7.606479999999999908e-01 -6.485009999999999941e-01 2.684659999999999824e-01 1.018079999999999957e-01 3.031860000000000110e-01 3.991709000000000174e+00 -1.310597000000000012e+00 3.476118000000000041e+00 1.415000000000000025e-03 -1.392266000000000004e+00 -8.128379999999999495e-01 1.081634999999999902e+00 1.288901999999999992e+00 -6.366509999999999669e-01 -1.659445000000000059e+00 5.199278999999999762e+00 1.292183000000000082e+00 6.286103999999999914e+00 1.280041999999999902e+00 -2.339017999999999819e+00 -7.897300000000000153e-02 2.279950000000000032e-01 -9.303179999999999783e-01 -7.934360000000000301e-01 -1.833164000000000016e+00 -2.809200999999999837e+00 2.705829000000000040e+00 9.733260000000000245e-01 -2.997018999999999878e+00 2.213411999999999935e+00 -6.573400000000000076e-02 -1.077849000000000057e+00 -2.263001000000000040e+00 3.055919999999999748e-01 -1.040121000000000073e+00 2.640999999999999945e-02 -2.018908999999999843e+00 1.381067999999999962e+00 3.931124000000000063e+00 -1.185999999999999988e-03 1.572409999999999919e-01 2.202916000000000096e+00 -3.433760000000000145e-01 1.511657999999999946e+00 -1.925999999999999934e-02 -2.048049999999999926e+00 8.774710000000000010e-01 -8.958660000000000512e-01 -1.294319999999999915e+00 2.725029999999999952e-01 -1.907637000000000027e+00 -7.265199999999999436e-02 2.941079999999999917e+00 -6.230369999999999520e-01 -2.241357999999999961e+00 -3.494502000000000219e+00 1.423813999999999913e+00 -2.065068000000000126e+00 1.461028999999999911e+00 1.074489000000000027e+00 -1.607280999999999960e+00 3.937079000000000217e+00 -3.623031999999999808e+00
5.551120000000000498e-01 2.952850000000000197e-01 4.602029999999999732e-01 6.980000000000000527e-04 -1.609929999999999972e-01 -1.625890999999999975e+00 4.039628999999999692e+00 1.086333999999999911e+00 8.692389999999999839e-01 -1.321406999999999998e+00 1.617949999999999999e+00 1.374399999999999927e-02 4.011959000000000053e+00 -2.333129999999999926e-01 5.558769999999999545e-01 -2.579750000000000099e-01 -1.579120000000000079e+00 1.921883000000000008e+00 -4.109399999999999858e-02 1.616897000000000029e+00 -1.238923999999999914e+00 -2.823142999999999958e+00 2.341861000000000193e+00 -3.509557000000000038e+00 2.109389000000000181e+00 3.911122999999999905e+00 -3.338391999999999804e+00 -3.378559999999999897e-01 -1.532990000000000075e+00 -1.837000000000000091e-02 -4.735779999999999990e-01 4.455479999999999996e-01 1.592098999999999931e+00 2.342502999999999780e+00 -8.344500000000000250e-01 1.432968999999999937e+00 -4.157790000000000097e-01 -3.211726000000000081e+00 3.403829999999999911e-01 1.147119999999999945e-01 -1.128340000000000037e-01 -6.227840000000000042e-01 1.877260000000000040e-01 1.925138999999999934e+00 -5.659680000000000266e-01 -5.755559999999999565e-01 7.990000000000000435e-01 2.514739999999999753e-01 7.381259999999999488e-01 2.054299999999999876e-02 2.089395999999999809e+00 -3.119399000000000033e+00 -2.025313999999999837e+00 -5.852960000000000385e-01 2.519751999999999992e+00 1.915170000000000039e+00 -4.033314999999999984e+00 -6.869269999999999543e-01 8.602560000000000207e-01 5.863720000000000043e-01 5.398330000000000073e-01 -3.255299999999999860e-01 -6.187240000000000517e-01 -1.116230999999999973e+00 -1.603442000000000034e+00 7.998129999999999962e-01 -1.299463999999999952e+00 1.994204000000000088e+00 3.138558000000000181e+00 -2.825002000000000013e+00 2.427877000000000063e+00 -2.996837999999999891e+00 -1.088576999999999906e+00 -8.041939999999999644e-01 8.619550000000000267e-01 7.339630000000000321e-01 4.133439999999999892e-01 4.554435999999999929e+00 2.259139999999999926e+00 1.308354999999999935e+00 -2.471014999999999961e+00 -1.371307999999999971e+00 -2.392581999999999987e+00 8.631900000000000683e-02 1.586216999999999988e+00 -6.962300000000000155e-01 -6.793810000000000127e-01 -1.400706000000000007e+00 -1.512957000000000107e+00 2.409040000000000070e+00 3.132845000000000102e+00 -2.641194000000000042e+00 1.523875000000000091e+00 1.058993999999999991e+00 8.311100000000000432e-02 -4.451600000000000001e-02 1.110669999999999991e-01 -2.226069999999999993e-01 9.395670000000000410e-01 3.070818000000000048e+00 6.760159999999999503e-01 -7.094439999999999635e-01 -7.186609999999999943e-01 2.012985000000000024e+00 1.513608000000000064e+00 -8.359300000000000064e-02 3.270810000000000106e-01 -1.501079999999999914e-01 5.809410000000000407e-01 2.364600000000000035e-02 -2.535160000000000191e-01 2.890750000000000264e-01 -1.278602000000000016e+00 -9.086149999999999505e-01 3.676849999999999841e-01 -1.543665000000000065e+00 1.332645000000000080e+00 2.097817000000000043e+00 -2.966779999999999973e-01 1.630200000000000093e+00 -2.283979999999999899e-01 9.492399999999999449e-02 -6.067249999999999588e-01 -6.199000000000000066e-01 8.596240000000000547e-01 -1.005899999999999989e-01 7.419660000000000144e-01 -2.483290999999999915e+00 7.442410000000000414e-01 -5.898500000000000271e-02 -1.432163999999999993e+00 -9.881500000000000006e-02 -5.995989999999999931e-01 -1.566826000000000052e+00 7.667329999999999979e-01 9.369530000000000358e-01 1.164655999999999914e+00 -1.008103999999999889e+00 9.697270000000000056e-01 -8.458139999999999548e-01 -1.023047000000000040e+00 8.046999999999999986e-02 1.264321000000000028e+00 -4.094130000000000269e-01 -4.690921000000000340e+00 1.741533999999999915e+00 -1.355987999999999971e+00 6.454600000000000615e-02 5.965660000000000407e-01 -1.418389999999999929e-01 1.245359999999999939e-01 -5.277859999999999774e-01 8.711299999999999599e-02 6.504050000000000109e-01 9.093000000000000388e-03 1.656447000000000003e+00 -5.920079999999999787e-01 -4.035250000000000226e-01 -5.813380000000000214e-01 -1.208765000000000089e+00 -1.715030999999999972e+00 2.409169999999999923e-01 -6.590369999999999839e-01 -1.268896999999999942e+00 2.063292000000000126e+00 -1.597609999999999975e+00 1.605677999999999939e+00 -1.492100999999999900e+00 2.481690000000000007e-01 -2.264349999999999974e-01 6.950880000000000392e-01 -1.862467000000000095e+00 8.259000000000000716e-03 1.139488999999999974e+00 -1.269787999999999917e+00 -1.380173000000000094e+00 -8.211019999999999985e-01 -8.757620000000000404e-01 7.503710000000000102e-01 -3.647290000000000254e-01 8.450170000000000181e-01 8.078530000000000433e-01 -2.293473000000000095e+00 1.705753999999999992e+00 5.395133000000000401e+00 -3.986832000000000154e+00 -1.873102000000000045e+00 1.314518000000000075e+00 -8.399309999999999832e-01 5.380270000000000330e-01 -1.828022999999999954e+00 -6.237460000000000226e-01 1.889372999999999969e+00 6.236190000000000344e-01 5.718210000000000237e-01 -1.652711000000000041e+00 7.528500000000000192e-01 -1.877149999999999930e-01 -1.017948999999999993e+00 -6.949049999999999949e-01 -2.483869999999999967e-01 -9.437919999999999643e-01 -1.950536999999999965e+00 1.355169000000000068e+00 -5.643749999999999600e-01 2.143170000000000075e-01 9.969759999999999733e-01 -1.220344000000000095e+00 4.529380000000000073e-01 -1.065557000000000087e+00 3.386999999999999820e-03 -2.368885000000000129e+00 -1.313736000000000015e+00 -7.953219999999999734e-01 2.062360000000000027e-01 2.084102999999999817e+00 3.378390000000000004e-01 5.091339999999999755e-01 -1.674180000000000113e-01 5.437370000000000259e-01 -6.392219999999999569e-01 -4.296980000000000244e-01 -7.000979999999999981e-01 -1.483467000000000091e+00 -1.492216999999999905e+00 -1.169691999999999954e+00 6.982479999999999798e-01 9.853560000000000096e-01 -2.036608999999999892e+00 -4.756599999999999717e-02 2.878830999999999918e+00 8.295099999999999696e-02 -9.355170000000000430e-01 -5.472770000000000135e-01 2.818459999999999854e-01 -7.830840000000000023e-01 1.089844000000000035e+00 -5.181409999999999627e-01 6.858079999999999732e-01 -1.539346000000000103e+00 -9.787390000000000256e-01 4.768359999999999821e-01 1.101785999999999932e+00 2.300850000000000117e-01 1.016261000000000081e+00 -2.141458999999999779e+00 -1.045698999999999934e+00 1.911970000000000058e-01 1.311733999999999956e+00 6.021189999999999598e-01 1.013160000000000061e+00 -1.045330000000000009e-01 -9.629739999999999966e-01 -2.889129999999999754e-01 3.450962999999999781e+00 -1.497360000000000024e+00 -2.553900000000000059e-01 3.902999999999999803e-01 1.268758000000000052e+00 -1.321042999999999967e+00 -5.526100000000000456e-01 2.169648000000000021e+00 6.782089999999999508e-01 -1.285179999999999989e+00 -2.510820000000000274e-01 6.564699999999999702e-02 6.291670000000000318e-01 2.289276999999999784e+00 6.396100000000000396e-02 -1.873607999999999940e+00 1.918717000000000006e+00 -1.551776000000000044e+00 -1.295530000000000015e-01 4.761799999999999922e-01 -3.559880000000000266e-01 5.369600000000000067e-02
2.774526999999999965e+00 -3.884569999999999967e-01 -1.420997999999999983e+00 1.764175000000000049e+00 -1.728699999999999903e+00 1.730869999999999909e-01 -3.090479999999999894e+00 -1.856402000000000108e+00 -2.501231999999999900e+00 -1.813614999999999977e+00 -1.052731000000000083e+00 -1.050572999999999979e+00 6.250799999999999690e-01 8.498670000000000391e-01 -1.752834000000000003e+00 -1.250156999999999963e+00 -3.236835999999999824e+00 2.916424999999999823e+00 -1.765346000000000082e+00 1.765757999999999939e+00 1.877005999999999952e+00 -1.093040999999999929e+00 6.418289999999999829e-01 1.714437999999999906e+00 -1.321995999999999949e+00 -1.754056000000000060e+00 1.902930999999999928e+00 -1.787136999999999976e+00 -3.726519999999999833e-01 1.797892999999999963e+00 1.644649999999999945e+00 -1.216328999999999994e+00 5.970269999999999744e-01 8.246499999999999941e-01 -2.706751999999999825e+00 3.803977999999999859e+00 1.607850000000000001e+00 -1.010839999999999933e-01 -3.808879999999999821e+00 -4.035852000000000217e+00 1.929909999999999959e-01 8.256600000000000050e-02 -6.932899999999999618e-01 7.991600000000000092e-02 -2.302246999999999932e+00 -1.862300000000000066e-02 1.768990999999999980e+00 -1.255522000000000027e+00 -3.021949999999999914e+00 1.807641999999999971e+00 -3.458520000000000039e+00 5.852420000000000400e-01 -1.430876000000000037e+00 4.290309999999999957e-01 -1.488899999999999946e-01 -2.582526999999999795e+00 -2.315958000000000183e+00 2.631731999999999960e+00 5.367039999999999589e-01 -1.518882999999999983e+00 -1.265179000000000054e+00 7.372030000000000527e-01 4.892099999999999921e-02 -4.270381999999999678e+00 4.999310000000000143e-01 5.344240000000000101e-01 5.124640000000000306e-01 1.327329999999999899e-01 -2.716839999999999811e-01 -5.914939999999999642e-01 -5.300899999999999501e-01 8.015579999999999927e-01 3.212955000000000005e+00 -3.601809999999999734e-01 -1.019400000000000084e+00 -9.317100000000000382e-02 1.840918000000000054e+00 7.717140000000000111e-01 -2.119331999999999994e+00 3.942860000000000253e-01 -7.395659999999999457e-01 2.317530999999999786e+00 -9.247079999999999744e-01 5.500080000000000524e-01 3.051099999999999993e-02 -1.847973000000000088e+00 2.787600000000000147e-02 -5.522540000000000227e-01 2.597636000000000056e+00 -2.227760000000000018e-01 -6.332090000000000218e-01 -9.803770000000000540e-01 -6.052849999999999620e-01 2.703463999999999867e+00 1.076443999999999956e+00 -1.459997999999999907e+00 8.005980000000000318e-01 4.884390000000000120e-01 1.888730000000000020e+00 -8.777690000000000214e-01 -9.397489999999999455e-01 -2.302309000000000161e+00 4.768729999999999913e-01 1.166025000000000089e+00 1.015411999999999981e+00 7.701869999999999550e-01 1.058890000000000109e+00 3.890410000000000257e-01 -2.283406999999999965e+00 2.708039999999999892e-01 3.836879999999999735e-01 3.952649999999999775e-01 1.987511000000000028e+00 3.130224000000000117e+00 1.494900000000000048e-02 1.866819999999999868e-01 -6.844000000000000083e-01 -2.503900999999999932e+00 3.918480999999999881e+00 1.513354000000000088e+00 -2.490588999999999942e+00 -2.941316000000000042e+00 1.006199999999999976e-02 2.630937999999999999e+00 -3.502219999999999778e-01 8.783440000000000136e-01 1.339725000000000055e+00 1.617429999999999923e+00 -1.036825000000000108e+00 3.292079000000000200e+00 1.518291999999999975e+00 -2.047931000000000168e+00 2.065882000000000218e+00 1.641602000000000006e+00 -3.498385999999999996e+00 2.020913999999999877e+00 5.113950000000000440e-01 1.362532999999999994e+00 1.022259999999999974e-01 -1.184032999999999891e+00 3.314380000000000104e-01 -1.581985999999999892e+00 2.466619999999999924e-01 2.167399999999999882e-02 -5.804840000000000000e-01 1.872411000000000048e+00 -6.178529999999999855e-01 -2.384300000000000086e+00 -9.832819999999999894e-01 3.079686999999999841e+00 1.545769999999999922e-01 -1.258065999999999907e+00 -2.072259999999999935e-01 7.075550000000000450e-01 -8.345850000000000213e-01 7.137970000000000148e-01 -5.556000000000000175e-03 -1.336548000000000069e+00 2.814550999999999803e+00 1.427721000000000018e+00 8.535679999999999934e-01 -2.100670000000000037e-01 1.080303000000000013e+00 8.089199999999999724e-01 4.639920000000000155e-01 -8.393680000000000030e-01 -4.876030000000000086e-01 6.926999999999999824e-01 1.901609999999999967e-01 1.609123000000000081e+00 -2.131029999999999869e-01 -5.919720000000000537e-01 -8.362220000000000208e-01 4.887079999999999758e-01 -1.469178000000000095e+00 8.975079999999999725e-01 -1.697325999999999890e+00 1.818049000000000026e+00 8.824170000000000069e-01 3.383680000000000021e-01 -5.274280000000000079e-01 -1.914568999999999965e+00 -1.431187999999999905e+00 -9.862619999999999720e-01 1.252326000000000050e+00 4.114019999999999899e-01 -5.265290000000000248e-01 -1.633876000000000106e+00 -8.500750000000000250e-01 -3.910850000000000160e-01 3.157948000000000199e+00 -9.299239999999999728e-01 2.406719999999999970e-01 -3.171430000000000082e-01 1.339229000000000003e+00 2.178080000000000016e-01 -3.173328000000000149e+00 1.961720000000000130e-01 -3.025342000000000198e+00 4.481203999999999965e+00 3.634654999999999969e+00 1.492059999999999942e+00 -1.868000000000000086e-03 -5.263609999999999678e-01 -1.881049999999999944e-01 5.979119999999999990e-01 1.302397999999999945e+00 5.159899999999999487e-01 8.570849999999999858e-01 5.051550000000000207e-01 7.766039999999999610e-01 -1.620668999999999915e+00 2.203066000000000191e+00 -5.192849999999999966e-01 3.801763999999999921e+00 -1.932034999999999947e+00 1.820875000000000021e+00 -5.007000000000000339e-02 7.224169999999999758e-01 3.718878000000000128e+00 3.237598000000000198e+00 -1.495433999999999930e+00 -1.012102999999999975e+00 -9.964460000000000539e-01 1.510056999999999983e+00 1.583936999999999928e+00 -1.169596999999999998e+00 3.604220000000000201e-01 -5.208999999999999742e-02 -5.707940000000000236e-01 1.451562000000000019e+00 -1.579439000000000037e+00 -2.520357000000000181e+00 -3.741391999999999829e+00 2.873384999999999856e+00 2.663247999999999838e+00 1.204935000000000089e+00 -1.600823000000000107e+00 -1.342954999999999899e+00 5.936479999999999535e-01 6.193640000000000256e-01 -3.614120999999999917e+00 -6.503740000000000077e-01 1.759511999999999965e+00 1.629685000000000050e+00 -2.046240000000000003e-01 5.230110000000000037e-01 -2.198443000000000147e+00 2.384238999999999997e+00 -2.232310000000000128e-01 5.804089999999999527e-01 -1.849717000000000056e+00 -1.256828000000000056e+00 9.400150000000000450e-01 -6.273199999999999887e-01 -1.492823000000000011e+00 -2.404271000000000047e+00 -1.452060000000000017e-01 -1.352632000000000057e+00 1.582014000000000031e+00 2.285530000000000062e+00 1.370057999999999998e+00 -2.327014000000000138e+00 -1.731813000000000047e+00 1.417180000000000106e+00 -1.118049999999999988e+00 -2.185942999999999969e+00 -1.740218999999999960e+00 1.209929000000000032e+00 5.069010000000000460e-01 2.238707999999999920e+00 -1.307142000000000026e+00 -2.107216999999999896e+00 -4.274100000000000121e-02 5.292199999999999682e-02 4.714309999999999889e-01
2.736099999999999990e-02 1.878425000000000011e+00 -2.421269999999999811e+00 7.238100000000000089e-02 7.184650000000000203e-01 -4.597853999999999886e+00 -1.898808999999999969e+00 -1.930820000000000036e-01 -2.425680999999999976e+00 -8.670900000000000274e-01 -1.530458000000000096e+00 -4.027152000000000065e+00 -3.477584999999999926e+00 9.311139999999999972e-01 2.698220000000000063e+00 4.196340000000000070e-01 -1.290518999999999972e+00 3.024049999999999794e-01 2.236499999999999946e-02 2.800529000000000046e+00 -4.343428000000000289e+00 1.437014999999999931e+00 -5.277364000000000388e+00 3.632899000000000100e+00 -2.034375999999999962e+00 2.881324999999999914e+00 1.232863000000000042e+00 5.389399999999999746e-01 7.644499999999999906e-02 -2.019029000000000185e+00 -1.113631999999999955e+00 8.943500000000000061e-02 -5.504521000000000441e+00 -9.788409999999999611e-01 2.401314000000000171e+00 2.923207999999999807e+00 3.834887999999999852e+00 -8.000810000000000421e-01 -1.098818000000000072e+00 3.755470000000000197e-01 -2.324080000000000035e-01 -6.105230000000000379e-01 1.359242000000000061e+00 4.315671000000000035e+00 -1.665372000000000074e+00 1.956677000000000000e+00 1.511681000000000052e+00 2.252439999999999998e-01 -2.534098000000000184e+00 -1.069715999999999889e+00 -1.143709000000000087e+00 2.793744999999999923e+00 7.223619999999999486e-01 5.720700000000000091e-02 -8.113190000000000124e-01 -2.954584999999999795e+00 -1.414523999999999893e+00 1.680979999999999974e-01 1.073063000000000100e+00 -1.467435000000000045e+00 1.848662000000000027e+00 4.383613999999999677e+00 3.179253999999999802e+00 1.606861000000000095e+00 5.276239000000000345e+00 -8.016649999999999610e-01 4.053377000000000230e+00 -2.865998999999999963e+00 1.502126999999999990e+00 -3.127492000000000161e+00 -4.394739999999999758e-01 3.292160000000000086e-01 -2.160553999999999863e+00 -3.090160000000000129e-01 1.601219999999999866e-01 1.258710000000000107e-01 1.338678000000000035e+00 1.590038999999999980e+00 -8.163800000000000223e-02 1.796021000000000090e+00 1.121933000000000069e+00 1.417329000000000061e+00 8.598230000000000040e-01 8.513070000000000359e-01 -1.513914999999999900e+00 1.280693999999999999e+00 1.366200000000000081e+00 -2.811574999999999935e+00 -1.477330000000000032e+00 -3.189311000000000007e+00 3.800240000000000062e+00 3.365609000000000073e+00 1.802462999999999926e+00 -3.967337999999999809e+00 -2.792152999999999885e+00 -1.726666000000000034e+00 1.786939999999999917e-01 -6.586629999999999985e-01 -2.348590000000000122e-01 2.132286000000000126e+00 -1.103933999999999971e+00 6.710909999999999931e-01 -7.536230000000000429e-01 -2.467896999999999785e+00 -1.220936000000000021e+00 1.441527999999999921e+00 6.678209999999999980e-01 -1.414768999999999943e+00 1.020524999999999904e+00 -1.822808999999999902e+00 1.346837999999999980e+00 -9.514200000000000434e-01 3.638669000000000153e+00 -3.045899999999999996e-02 -7.430909999999999460e-01 6.236620000000000497e-01 -1.037585999999999897e+00 3.453939999999999788e-01 -1.558243999999999962e+00 5.814770000000000216e-01 8.981879999999999864e-01 2.246837999999999891e+00 3.969670000000000143e-01 -7.157700000000000173e-01 4.720610000000000084e-01 1.515849999999999975e-01 6.456469999999999709e-01 1.442004999999999981e+00 1.746987000000000068e+00 1.086937000000000042e+00 -1.070189999999999975e+00 -2.633329999999999838e-01 3.367398000000000113e+00 -1.206410999999999900e+00 2.184832000000000107e+00 -4.839990000000000125e-01 -8.765819999999999723e-01 -3.348761999999999794e+00 -1.297312000000000021e+00 2.726529999999999898e+00 -1.098213000000000106e+00 5.629480000000000040e-01 -4.459250000000000158e-01 2.398188000000000208e+00 -3.284762999999999877e+00 3.914299999999999724e-02 1.951011999999999968e+00 -1.575766999999999918e+00 -2.942020999999999997e+00 1.892660000000000009e+00 4.072870000000000101e-01 -3.167816000000000187e+00 2.459559000000000051e+00 -1.371375000000000011e+00 -2.184981000000000062e+00 1.941106999999999916e+00 5.152830000000000465e-01 1.338229999999999975e-01 -4.185349999999999904e-01 1.506912000000000029e+00 -5.212348999999999677e+00 7.827079999999999593e-01 -1.314861000000000057e+00 1.601353999999999944e+00 1.315927000000000069e+00 5.487600000000000255e-01 -7.839519999999999822e-01 4.676669999999999994e-01 2.559140999999999888e+00 -6.461521000000000292e+00 -4.648499000000000159e+00 2.643923000000000023e+00 5.811589999999999812e-01 -2.060500999999999916e+00 1.208388000000000018e+00 -2.308977000000000057e+00 5.738370000000000415e-01 -3.469981999999999900e+00 2.720412000000000052e+00 -7.196470000000000367e-01 -9.827090000000000547e-01 6.843949999999999756e-01 -4.115440000000000209e-01 -1.314113000000000087e+00 1.339010000000000034e+00 1.355709999999999971e-01 9.305419999999999803e-01 3.019129999999999869e-01 2.840643000000000029e+00 -7.132730000000000459e-01 1.427556999999999965e+00 1.251414999999999944e+00 -1.437686000000000019e+00 -5.248867999999999867e+00 -1.941500999999999921e+00 -1.712669999999999915e+00 1.343382000000000076e+00 1.070306999999999897e+00 -1.221643999999999952e+00 7.045740000000000336e-01 9.160310000000000397e-01 1.357623999999999942e+00 -8.599670000000000369e-01 1.084818000000000060e+00 -1.257235000000000102e+00 -4.646800000000000236e-02 -9.111050000000000537e-01 1.996661999999999937e+00 1.130627999999999966e+00 1.203426000000000107e+00 7.272849999999999593e-01 3.230339999999999878e-01 -2.718949999999999978e-01 5.237680000000000113e-01 2.117137000000000047e+00 4.354489999999999750e-01 -1.663348999999999966e+00 6.757649999999999491e-01 -8.135100000000000664e-02 -3.106314999999999937e+00 -1.886584999999999956e+00 -2.184695000000000054e+00 -2.060629999999999962e-01 2.510546999999999862e+00 -2.271701000000000192e+00 -1.006172999999999984e+00 -2.860610000000000097e-01 -3.924266999999999950e+00 1.080039999999999889e+00 -1.428260000000000085e+00 -2.307484000000000091e+00 1.551237999999999895e+00 -1.209154000000000062e+00 3.393439999999999790e-01 2.982559000000000182e+00 3.204200000000000104e-02 4.195177000000000156e+00 -8.438339999999999730e-01 5.002050000000000107e-01 2.385015000000000107e+00 1.416387000000000063e+00 9.424740000000000339e-01 1.221808999999999923e+00 -1.170074999999999976e+00 -3.872709999999999764e-01 -9.257929999999999771e-01 -4.047533999999999743e+00 -2.249458000000000180e+00 -3.539300000000000224e-01 -7.009630000000000027e-01 2.884990000000000054e-01 1.686563999999999952e+00 -7.948760000000000270e-01 -1.778345999999999982e+00 1.312068000000000012e+00 1.926952999999999916e+00 -1.910265000000000102e+00 8.917899999999999439e-02 -2.436411000000000104e+00 1.453180000000000027e-01 1.204388000000000014e+00 -2.957890000000000241e-01 1.240350999999999981e+00 2.807729999999999948e-01 -6.059740000000000126e-01 -1.575449000000000099e+00 3.595674999999999955e+00 1.078975000000000017e+00 -3.083609999999999962e-01 -2.806370000000000253e-01 5.346671999999999869e+00 9.904150000000000453e-01 2.880008999999999819e+00 1.010734000000000021e+00 3.387735000000000163e+00 -1.145850000000000035e+00