-9.050313801600000261e+02
-9.177255419499999789e+02
-9.208409148299999742e+02
-9.273089839100000518e+02
-9.090158876199999440e+02
-9.209826422800000501e+02
-9.249317007600000125e+02
-9.178620902100000194e+02
-8.924508266699999695e+02
-9.096380223700000442e+02
-9.024651041199999781e+02
-9.151097353000000112e+02
-9.056605871000000434e+02
-9.161529819300000099e+02
-9.085307357100000445e+02
-9.250390368700000181e+02
-9.212673551899999893e+02
-8.916537009899999475e+02
-9.179292869800000290e+02
-9.250444427099999984e+02
-8.892039758600000141e+02
-9.052452981699999555e+02
-8.972662931200000003e+02
-9.271588009800000236e+02
-8.937096383499999774e+02
-8.855293013100000508e+02
-9.126465964200000371e+02
-8.878103086300000086e+02
-8.886906116500000508e+02
-8.931722819899999877e+02
-8.988841779099999485e+02
-9.208879571999999598e+02
-9.053228727700000036e+02
-9.188318286300000182e+02
-9.071965232500000411e+02
-8.855022135399999570e+02
-9.162974980400000504e+02
-8.903278035399999908e+02
-9.042334133900000097e+02
-9.205717149900000322e+02
-8.923856820900000457e+02
-8.849341847099999541e+02
-8.920672520000000532e+02
-9.196566425199999912e+02
-9.043936164799999915e+02
-9.144842757300000358e+02
-8.768529419400000506e+02
-8.987416922500000283e+02
-9.124858117500000390e+02
-9.153997656000000234e+02
-9.195169440299999906e+02
-9.212888761299999487e+02
-9.273084075599999778e+02
-9.070280228999999963e+02
-8.982355692099999942e+02
-8.997896429999999555e+02
-9.199749892900000532e+02
-9.057465244999999641e+02
-9.124949209799999608e+02
-9.206699517700000115e+02
-9.249930173999999852e+02
-9.274279162000000269e+02
-9.069570452100000466e+02
-9.257157295299999760e+02
-9.177269640299999764e+02
-8.714861291900000424e+02
-9.045680246800000077e+02
-8.960437964100000272e+02
-9.176113649200000282e+02
-8.912771137900000440e+02
-9.157560919799999510e+02
-9.275901334899999711e+02
-8.811904793800000562e+02
-9.156028729199999816e+02
-9.206860002500000064e+02
-9.205732693800000561e+02
-9.217319909399999460e+02
-9.044061791200000471e+02
-9.184354273599999487e+02
-9.248085436600000548e+02
-8.992014104099999940e+02
-9.203047185399999535e+02
-9.064703948899999659e+02
-9.045767201600000362e+02
-8.900619744699999956e+02
-8.936873337199999696e+02
-9.136960478199999898e+02
-9.136144202100000484e+02
-8.934729564100000516e+02
-8.872562336299999970e+02
-8.982203617599999461e+02
-9.106609237300000359e+02
-9.246921979999999621e+02
-8.826694600900000296e+02
-8.854152582200000552e+02
-8.919949061600000277e+02
-9.217161593299999822e+02
-9.176882885600000463e+02
-9.125540860900000553e+02
-8.696885256799999979e+02
