1.007225018165729757e+01 2.628965004304768094e+00 2.586197141914227338e+00 1.007234756422346678e+01 2.628258759751281648e+00 7.793517104451124666e+00 1.001464944365037013e+01 7.695429446958321762e+00 2.586194264354489736e+00 1.001474682630382063e+01 7.694723201700952586e+00 7.793524226891362261e+00 5.012337940051616592e+00 2.623848764456747862e+00 2.637280945989241232e+00 5.012435322617784905e+00 2.623142519903261416e+00 7.844600908526138561e+00 4.954727202206252734e+00 7.690313150266308462e+00 2.637278068512783236e+00 4.954824584859701453e+00 7.689606905008939286e+00 7.844608031049655317e+00 2.531408935654904546e+00 6.218835442665455321e-02 2.586552289121603287e+00 2.531516318146791011e+00 6.148216601327959052e-02 7.793882251575195319e+00 2.473808197735258396e+00 5.128652796376326428e+00 2.586559411561840438e+00 2.473905580301426710e+00 5.127946551822839538e+00 7.793879374098737323e+00 7.591382802836594834e+00 6.716777965569001307e-02 2.637158475134347757e+00 7.591480185402762260e+00 6.646153510220392802e-02 7.844478437671244642e+00 7.533782064829666503e+00 5.133632222309244320e+00 2.637155597574610155e+00 7.533879447483116110e+00 5.132925977051874256e+00 7.844485560111482236e+00 2.495135814301785881e+00 2.633082264474890355e+00 5.162503572986303801e+00 2.495233196955235488e+00 2.632376019217521179e+00 1.036983353552317411e+01 2.437535076294857550e+00 7.699546707128443579e+00 5.162500695426565755e+00 2.437632458948307157e+00 7.698840461871076180e+00 1.036983065796343872e+01 7.508107143585820431e+00 2.564550330269898204e+00 5.255564995017008023e+00 7.508009760932369936e+00 2.565256575527266936e+00 4.823503248013619182e-02 7.450506405578892100e+00 7.631014772923452760e+00 5.255562117457270865e+00 7.450409023012722898e+00 7.631721017476937874e+00 4.824215492037348119e-02 8.451766956858911646e-04 5.767209706031355132e-02 5.162634065048289145e+00 9.425593491358778006e-04 5.696585180294473638e-02 1.036996402758516211e+01 -5.675561815523034320e-02 5.124146539552279833e+00 5.162631188192919218e+00 -5.665817865779251145e-02 5.123430294456498224e+00 1.036996115002542318e+01 5.094733015951639743e+00 1.254423383949236637e-01 5.255534374895697525e+00 5.094635633298191024e+00 1.261485836522925064e-01 4.820441235882590159e-02 5.037122278106275886e+00 5.191906724204484291e+00 5.255531497419239528e+00 5.037024895540108460e+00 5.192612968757970293e+00 4.821153488234292822e-02 3.696235847321255541e+00 3.844558137324099789e+00 3.618348359322575369e+00 3.696333229887422966e+00 3.843851892770613787e+00 8.825668321859472698e+00 3.638635109314327210e+00 8.911022579977654345e+00 3.618345481762837768e+00 3.638732491967776816e+00 8.910316334720285170e+00 8.825675444299708516e+00 8.850258205381464904e+00 3.913326797976034221e+00 3.617908214344397244e+00 8.850355588034915399e+00 3.912620552718665490e+00 8.825238176881267549e+00 8.792657467374537461e+00 8.979791240629587890e+00 3.617905336784659642e+00 8.792754850027986180e+00 8.979084995372218714e+00 8.825235299321532167e+00 3.907416871597070518e+00 1.243678844754506851e+00 1.598133439600291306e+00 3.907514254250520569e+00 1.242972599497137898e+00 6.805463402137163165e+00 3.849816133590141298e+00 6.310143287408060075e+00 1.598130562040553926e+00 3.849913516243591793e+00 6.309437042150692676e+00 6.805460524577425119e+00 8.696608622057924620e+00 1.446975840600433827e+00 1.597635948164176423e+00 8.696716004549807977e+00 1.446269652187059052e+00 6.804965910617768898e+00 8.639007884050993624e+00 6.513440283253988383e+00 1.597633070604438821e+00 8.639105266704444119e+00 6.512734037996619207e+00 6.804963033141310014e+00 3.774189086306396490e+00 1.324138995196155966e+00 4.207990272458648207e+00 3.774296525554988513e+00 1.323422807648252153e+00 9.415310234207897366e+00 3.716588348299467714e+00 6.390603437849709856e+00 4.207987394898909272e+00 3.716685787796905949e+00 6.389887192753930023e+00 9.415317356731414122e+00 8.829357655649930692e+00 1.366905305757888156e+00 4.207629160038570681e+00 8.829455038216096341e+00 1.366199061204401932e+00 9.414949122575468010e+00 8.771756917643001472e+00 6.433369748411442934e+00 4.207626282478833524e+00 8.771854300296450191e+00 6.432663503154072870e+00 9.414956245015705605e+00 3.765293392423470387e+00 3.823793104231191897e+00 1.023796288431511714e+00 3.765390831920908177e+00 3.823076859135411620e+00 6.231126250264015454e+00 3.707682654665388267e+00 8.890257489336869767e+00 1.023803410955028470e+00 3.707780037231555692e+00 8.889551244783383765e+00 6.231123373491925577e+00 8.780579983148420808e+00 3.933643792664082373e+00 1.023450246064068647e+00 8.780677365714588234e+00 3.932937548110595927e+00 6.230770208600965532e+00 8.722969245303055175e+00 9.000108178473642084e+00 1.023447368587610873e+00 8.723066627956505670e+00 8.999401933216272909e+00 6.230777331124483176e+00 1.248479671052823203e+00 1.345846321419605029e+00 3.581683843793189048e+00 1.248577053618990629e+00 1.345140076866118806e+00 8.789003806330084601e+00 1.190868933207458458e+00 6.412310707229164741e+00 3.581680966316731496e+00 1.190966315860908509e+00 6.411604461971797342e+00 8.789010928853603133e+00 6.301824238328788574e+00 1.345426974238675299e+00 3.646509707693472713e+00 6.301921620982238181e+00 1.344720728981306568e+00 8.853839670230344794e+00 6.244213500570706010e+00 6.411891359344352281e+00 3.646516830216989469e+00 6.244310883136873436e+00 6.411185114790867168e+00 8.853836792753886797e+00 1.219502434576744232e+00 3.879037164475054311e+00 1.528382398479755766e+00 1.219599817230194283e+00 3.878330919217685135e+00 6.735712361016627625e+00 1.161891696731379264e+00 8.945501550284614467e+00 1.528379521003297992e+00 1.161999079223265730e+00 8.944795361871239692e+00 6.735709483456889579e+00 6.272986351503055502e+00 3.878738336656712971e+00 1.597108269656723589e+00 6.273093733994942411e+00 3.878032148243338195e+00 6.804438232110315177e+00 6.215385613583409352e+00 8.945202778606384797e+00 1.597115392096960962e+00 6.215482996149576778e+00 8.944496534052897019e+00 6.804435354633858068e+00 1.219714191784454727e+00 3.879034505682722234e+00 4.138702403010199760e+00 1.219811574350622374e+00 3.878328261129236232e+00 9.346022365547096200e+00 1.162103453939089981e+00 8.945498891492283278e+00 4.138699525533742651e+00 1.162200836592539810e+00 8.944792646234914102e+00 9.346029488070612956e+00 6.273149033400745367e+00 3.878584821699916141e+00 4.215588264017528175e+00 6.273256415892632276e+00 3.877878633286541366e+00 9.422918226471120207e+00 6.215548295393817035e+00 8.945049264353471585e+00 4.215585386457791017e+00 6.215645678047266642e+00 8.944343019096102410e+00 9.422915348994662210e+00 1.248338113614764655e+00 1.345857299392571926e+00 1.000893839309876521e+00 1.248435496180932525e+00 1.345151054839085702e+00 6.208213801846773627e+00 1.190737375607836102e+00 6.412321742046126261e+00 1.000890961750139141e+00 1.190834758261286153e+00 6.411615496788757085e+00 6.208220924287010334e+00
1.007198479308828531e+01 2.628153460785201734e+00 2.586507087108231406e+00 1.007295641252305707e+01 2.630222254519289038e+00 7.793487237343890150e+00 1.001384900033976066e+01 7.695504910112115127e+00 2.586024276652235443e+00 1.001588742723423842e+01 7.694619731557748032e+00 7.792844209651141441e+00 5.012929519183424887e+00 2.623572146708863961e+00 2.636940921354302692e+00 5.012796117941542562e+00 2.623004525612425919e+00 7.845210895665388762e+00 4.954355902867160211e+00 7.690541026428824978e+00 2.637518087793982779e+00 4.953446421973545455e+00 7.689279099494976677e+00 7.844128020003704016e+00 2.531820247963778137e+00 6.196059583440619023e-02 2.587872269503361355e+00 2.531797846141341957e+00 6.121378030893640659e-02 7.793622230226094239e+00 2.474188643991122039e+00 5.128574976745631453e+00 2.586289402762949940e+00 2.473834500436497663e+00 5.128136158587419224e+00 7.793769388064954562e+00 7.592213812182183830e+00 6.699250413517877922e-02 2.637108455543641039e+00 7.590803375986553192e+00 6.589770832262827061e-02 7.844058403890741715e+00 7.533290147382409430e+00 5.133969372333401004e+00 2.637995625601699423e+00 7.534089388991938030e+00 5.132937156536503842e+00 7.844685559066472358e+00 2.494811385466205067e+00 2.633860434270983930e+00 5.162483630591971462e+00 2.494741093701615675e+00 2.632743291936394225e+00 1.036892356566776918e+01 2.437223709715910402e+00 7.699785000212671982e+00 5.161660714915170978e+00 2.437897967664186982e+00 7.699631953626495218e+00 1.037026071135883853e+01 7.508522356134719189e+00 2.563632760205676320e+00 5.254364926803746449e+00 7.507611199492179921e+00 2.565004217117988983e+00 4.949501819896789251e-02 7.450184720441844988e+00 7.631312828000175408e+00 5.257282141248920126e+00 7.450698232461729908e+00 7.631862583447895254e+00 4.938216236353922678e-02 2.286684028644940352e-03 5.741032074467786878e-02 5.162154034039293293e+00 1.388169680206276149e-03 5.773844098111752948e-02 1.036934407807543046e+01 -5.666516799956248379e-02 5.124067077780707358e+00 5.162271181809367171e+00 -5.640165872080512427e-02 5.124041830116209617e+00 1.036900119082898364e+01 5.095193124738875312e+00 1.254249331292176250e-01 5.255824369655366368e+00 5.094922556942726111e+00 1.266902402955448204e-01 4.796444798016347849e-02 5.036853359973076927e+00 5.191715212899421950e+00 5.255241486285539665e+00 5.036877792555546129e+00 5.192102160237072717e+00 4.770150021007828200e-02 3.698303830632150735e+00 3.846679838090516057e+00 3.619608490618769103e+00 3.693601278344960548e+00 3.844186417976501069e+00 8.824968369249461375e+00 3.639349159450658622e+00 8.910306878821696586e+00 3.614775425144495902e+00 3.641516753502662684e+00 8.911332250535688004e+00 8.824645491504009343e+00 8.848161696930187503e+00 3.912704950132946280e+00 3.616778188869562705e+00 8.850846503959619582e+00 3.912453683612255873e+00 8.820368160838564009e+00 8.794926577002206258e+00 8.981714140633792809e+00 3.618325452330021896e+00 8.791616983544182418e+00 8.978708425407624816e+00 8.826595282750401950e+00 3.907148792507653123e+00 1.243337445678973863e+00 1.596283417905001834e+00 3.908511455105191601e+00 1.245228247368701968e+00 6.806273552206564936e+00 3.849428254378088443e+00 6.309770985670184906e+00 1.599420539223620263e+00 3.850666468557533140e+00 6.307161254477474444e+00 6.805900357817825430e+00 8.694749025684552990e+00 1.450415445921632962e+00 1.595926206498739841e+00 8.693392769868767189e+00 1.445070710529772873e+00 6.805415855233417410e+00 8.640450272064970960e+00 6.509498761015412249e+00 1.592772780565773871e+00 8.635228452571203306e+00 6.510402027063181052e+00 6.804052902830516558e+00 3.779342397593173253e+00 1.323568409766582299e+00 4.206140187312192857e+00 3.774092373152670543e+00 1.324151707540355494e+00 9.414620287294056311e+00 3.712933582940402655e+00 6.389672625832107045e+00 4.208297361281065463e+00 3.714229011677701919e+00 6.389313211141545601e+00 9.415417337773392958e+00 8.826334542485522405e+00 1.369207948470250846e+00 4.210609348511535899e+00 8.827423879995521361e+00 1.366397496659935040e+00 9.415259154272190401e+00 8.773085811047078408e+00 6.431807356022823718e+00 4.206506160903026981e+00 8.776549441795541640e+00 6.435290258594296375e+00 9.414616388927363744e+00 3.765417140636460047e+00 3.826653790483474538e+00 1.024696488712441234e+00 3.764406010419293125e+00 3.822161329342696590e+00 6.229946194414232252e+00 3.705934493839200705e+00 8.891687602664683610e+00 1.023413526875603941e+00 3.709631716153210412e+00 8.889261737614580383e+00 6.231523336953144643e+00 8.780862361271603689e+00 3.933225429796159744e+00 1.022900214150184173e+00 8.780046124093592752e+00 3.931393982843577106e+00 6.230090105459980876e+00 8.722974241987921928e+00 8.999228237741885295e+00 1.022807306604879285e+00 8.721061370384171951e+00 9.002080567236067310e+00 6.230927537171631947e+00 1.247478711075959090e+00 1.344250722713262070e+00 3.580023740214181682e+00 1.251897212081416022e+00 1.345119072897910550e+00 8.787253775868149930e+00 1.191443478781424758e+00 6.415033882631246520e+00 3.583591152986387751e+00 1.191893107699454779e+00 6.410409828558215395e+00 8.787340836671965860e+00 6.300210758061083993e+00 1.342517685843823028e+00 3.647499516998998104e+00 6.297522209164911899e+00 1.344605674733690082e+00 8.854469700532531462e+00 6.243579876050718624e+00 6.412527741083559718e+00 3.646896880542177755e+00 6.245580395142812158e+00 6.414792416241916762e+00 8.853457035584062496e+00 1.219006758074941077e+00 3.876514382170894724e+00 1.527302225229124177e+00 1.219293295986613845e+00 3.874199135441535713e+00 6.735352072861979345e+00 1.157971671798713853e+00 8.945489520675222295e+00 1.524779554362372336e+00 1.165020771885549422e+00 8.944512242197570018e+00 6.739849437164974866e+00 6.272219013363720563e+00 3.880024137148751162e+00 1.595098366854448058e+00 6.271680817908091399e+00 3.878543987580490793e+00 6.806388280474962471e+00 6.215122421234201333e+00 8.942241417814134508e+00 1.594515185942548152e+00 6.217921245211372572e+00 8.944810449115431439e+00 6.803725355446416323e+00 1.216701431580769155e+00 3.879507577067214275e+00 4.136012462598171346e+00 1.218719246519567978e+00 3.878732178168861289e+00 9.344322403507931085e+00 1.162435319144687673e+00 8.946930806008159820e+00 4.138629623426962389e+00 1.159447748493447339e+00 8.945327054521051480e+00 9.345329549714511685e+00 6.273970011617983289e+00 3.874899302146525226e+00 4.217387997439009162e+00 6.274267008624066833e+00 3.877774507229578838e+00 9.421058210316504145e+00 6.213840434191436835e+00 8.944669485955950350e+00 4.216495374634735782e+00 6.217009507500621979e+00 8.943670873488491324e+00 9.421315289775654023e+00 1.247537663341207193e+00 1.349452799646639445e+00 1.001004099377724055e+00 1.247418321275772346e+00 1.348165516615625448e+00 6.205444022900702628e+00 1.192357539963952107e+00 6.414060780463574751e+00 1.003721070024005790e+00 1.193291407208185273e+00 6.408699147297000742e+00 6.212010697577542651e+00
1.007172946120169144e+01 2.627331974271217341e+00 2.586817031514588194e+00 1.007355531774091517e+01 2.632175693308773656e+00 7.793447369615593701e+00 1.001305855686758406e+01 7.695580430109903780e+00 2.585854288866701101e+00 1.001702797140794665e+01 7.694526260549071850e+00 7.792174193115262604e+00 5.013521155159221365e+00 2.623285529122568516e+00 2.636600896014996032e+00 5.013156856334030742e+00 2.622876531863885141e+00 7.845810883509032330e+00 4.953974603689633049e+00 7.690768845747347093e+00 2.637758107158461041e+00 4.952068259174670750e+00 7.688951293277130894e+00 7.843658008957727468e+00 2.532231560272650839e+00 6.173283724215782031e-02 2.589192249885119423e+00 2.532089373974329316e+00 6.094545144858709573e-02 7.793362208793713108e+00 2.474569033490279235e+00 5.128507156249464849e+00 2.586029394668401871e+00 2.473753363889144907e+00 5.128335708346417832e+00 7.793659402818819082e+00 7.593054878210194758e+00 6.680728562024942918e-02 2.637058435165287040e+00 7.590116566731907710e+00 6.533382469905874013e-02 7.843638370193517950e+00 7.532808286530293884e+00 5.134296580067022830e+00 2.638825652841166214e+00 7.534289273905617534e+00 5.132958278311666511e+00 7.844895558809084513e+00 2.494496956469060667e+00 2.634638660911071018e+00 5.162463688114359961e+00 2.494238990609558559e+00 2.633110507811272427e+00 1.036801359589564342e+01 2.436902343298525508e+00 7.700023236452905984e+00 5.160820734487055361e+00 2.438163476467349433e+00 7.700423444678031970e+00 1.037070076475421132e+01 7.508927568757899351e+00 2.562715134001344097e+00 5.253154858673790173e+00 7.507212638051989018e+00 2.564751858708711030e+00 5.075500391779959319e-02 7.449873091899940292e+00 7.631600940786363196e+00 5.258992164252949131e+00 7.450987385066746960e+00 7.632014149257263291e+00 5.052217051107248807e-02 3.718191523167623403e-03 5.714848758504832704e-02 5.161674003113577491e+00 1.833780011276674605e-03 5.851103015929032952e-02 1.036872412856570236e+01 -5.657471775661233188e-02 5.123987615305252596e+00 5.161921175425788988e+00 -5.614513878381774403e-02 5.124653365775921898e+00 1.036804123163254410e+01 5.095653233526109993e+00 1.254075278635115864e-01 5.256114364415034323e+00 5.095219423581711204e+00 1.272419536212029689e-01 4.772448422258883383e-02 5.036574442001440666e+00 5.191523644750366984e+00 5.254951475235118075e+00 5.036730689570984687e+00 5.191591351716176028e+00 4.719146553781364273e-02 3.700371814030328999e+00 3.848801538153049151e+00 3.620878621914938034e+00 3.690879383572204908e+00 3.844510999484088032e+00 8.824278415851775748e+00 3.640053209923118871e+00 8.909591119413981630e+00 3.611225368609383590e+00 3.644291015373676501e+00 8.912348108099330091e+00 8.823635538791538835e+00 8.846075188230068775e+00 3.912083159837735025e+00 3.615638163311474251e+00 8.851327363289181349e+00 3.912296756796382891e+00 8.815508145583482502e+00 8.797205686555594539e+00 8.983637096778107178e+00 3.618755567792078853e+00 8.790479117060378655e+00 8.978331855443030918e+00 8.827955266179271732e+00 3.906880770349504761e+00 1.242986046061145933e+00 1.594443395505319438e+00 3.909508769647839443e+00 1.247463895563441838e+00 6.807083700867231357e+00 3.849040318234765667e+00 6.309408684474604456e+00 1.600700517111079080e+00 3.851419420784192305e+00 6.304885467508138497e+00 6.806330191058250989e+00 8.692879543248002605e+00 1.453834994018130766e+00 1.594226463507822933e+00 8.690079478182177297e+00 1.443881825554892862e+00 6.805865800470154880e+00 8.641902660091945521e+00 6.505557294213063280e+00 1.587932490443778821e+00 8.631361581432409835e+00 6.508080072812147954e+00 6.803142773140809396e+00 3.784475709203077631e+00 1.322997710649020497e+00 4.204290102332296719e+00 3.773898277345494101e+00 1.324870665141923975e+00 9.413920339592593223e+00 3.709288760575786714e+00 6.388751870496911955e+00 4.208607328284307947e+00 3.711782292240922043e+00 6.388729286534743146e+00 9.415517318027726290e+00 8.823321429072271016e+00 1.371510648730490445e+00 4.213579536901246314e+00 8.825382721936506414e+00 1.366595875271474414e+00 9.415569186052191952e+00 8.774404647768729859e+00 6.430254906628621647e+00 4.205386040114867718e+00 8.781244583381914381e+00 6.437917013330637594e+00 9.414286532838998411e+00 3.765530945767719295e+00 3.829504420757233518e+00 1.025586688372308375e+00 3.763421188917677629e+00 3.821245799549981559e+00 6.228766138564449939e+00 3.704186276256307586e+00 8.893127715127029376e+00 1.023033643500521395e+00 3.711473395061864355e+00 8.888972175009545396e+00 6.231903300497694254e+00 8.781154739145939914e+00 3.932807124476113358e+00 1.022340182153045118e+00 8.779434882149471875e+00 3.929850531264546198e+00 6.229410002152437009e+00 8.722969238921631785e+00 8.998348239462254483e+00 1.022177244705402277e+00 8.719066112650274647e+00 9.004759258099854335e+00 6.231077743135502445e+00 1.246477808030365342e+00 1.342645123464624390e+00 3.578373635930781393e+00 1.255217313612571273e+00 1.345108069471997236e+00 8.785493746110606850e+00 1.192028081037816101e+00 6.417747115038910266e+00 3.585501338868396726e+00 1.192819842781295270e+00 6.409225194279164484e+00 8.785680745194673236e+00 6.298607277631815826e+00 1.339608454292964490e+00 3.648489326221243001e+00 6.293142853781164447e+00 1.344480735039532249e+00 8.855089729963815159e+00 6.242946308374722086e+00 6.413154122984354721e+00 3.647276930162997921e+00 6.246839964154301761e+00 6.418389661010560410e+00 8.853077277793152788e+00 1.218521024567586375e+00 3.874001656549140638e+00 1.526222052599580437e+00 1.218996717737482305e+00 3.870077408347791792e+00 6.734991785328420022e+00 1.154061589947778632e+00 8.945487547044352894e+00 1.521189588342509502e+00 1.168042464460550933e+00 8.944229123227785294e+00 6.743979390873084512e+00 6.271441675298666141e+00 3.881309881500678571e+00 1.593078464135477157e+00 6.270267958577947276e+00 3.879045827783114575e+00 6.808328328135266894e+00 6.214859228884992426e+00 8.939280057021885995e+00 1.591914979788135565e+00 6.220349608035426137e+00 8.945104308361031542e+00 6.803005354933545412e+00 1.213688728308353948e+00 3.879970647909411596e+00 4.133332521481749566e+00 1.217626975532501987e+00 3.879126095370074800e+00 9.342622440764396075e+00 1.162757241355837134e+00 8.948352663841633969e+00 4.138559720699094946e+00 1.156694660394355090e+00 8.945861462807190634e+00 9.344629611358410415e+00 6.274790932991232140e+00 3.871223782431546301e+00 4.219187731564857380e+00 6.275277544598795387e+00 3.877680380307146457e+00 9.419208194866230954e+00 6.212132572901774452e+00 8.944289708262312288e+00 4.217395362811707571e+00 6.218363280271551830e+00 8.943008670875300936e+00 9.419715231344293116e+00 1.246727213229213094e+00 1.353048243056713007e+00 1.001114359528851416e+00 1.246411146121765956e+00 1.351180035940041657e+00 6.202664243871378602e+00 1.193967704307067335e+00 6.415799763444794301e+00 1.006531178381202762e+00 1.195748056155084171e+00 6.405782797805244400e+00 6.215800470868074967e+00
1.007146407263267740e+01 2.626520430751650981e+00 2.587126976708591819e+00 1.007416416595322062e+01 2.634139188780663776e+00 7.793407502508384432e+00 1.001226805655142194e+01 7.695665949946102202e+00 2.585684301785534878e+00 1.001815857258721110e+01 7.694422732857988834e+00 7.791504175958296585e+00 5.014112734291027884e+00 2.623008911374684615e+00 2.636260871380057047e+00 5.013517651570507105e+00 2.622738538276931930e+00 7.846410870648306890e+00 4.953603247506555007e+00 7.691006721748275154e+00 2.637998127144027816e+00 4.950690096375796045e+00 7.688623487059285999e+00 7.843187997911750919e+00 2.532642872494241360e+00 6.150507935379219415e-02 2.590502230266903183e+00 2.532380901807316675e+00 6.067712258823776406e-02 7.793102187361331978e+00 2.474949479833424615e+00 5.128429335914887588e+00 2.585769385869486570e+00 2.473672284185779446e+00 5.128525258267004894e+00 7.793549416868317259e+00 7.593885887555784642e+00 6.663201009973819533e-02 2.637008415574580766e+00 7.589439700471710459e+00 6.477999775789501646e-02 7.843218337117382255e+00 7.532326368921474113e+00 5.134633786935173028e+00 2.639665680784975876e+00 7.534499215414439455e+00 5.132969457796294321e+00 7.845095557764074634e+00 2.494172584390185854e+00 2.635406831572635333e+00 5.162433745015685638e+00 2.493746887443220928e+00 2.633477779826261855e+00 1.036711362604020970e+01 2.436590919788307996e+00 7.700271530079427329e+00 5.159970754680052174e+00 2.438428928339241519e+00 7.701224936271862553e+00 1.037113081885397925e+01 7.509332781468362583e+00 2.561797507093128257e+00 5.251954790543806872e+00 7.506814133368504116e+00 2.564489501164903817e+00 5.200498893228894248e-02 7.449551406762894956e+00 7.631898995863087620e+00 5.260712188044598392e+00 7.451266594764597961e+00 7.632155657680343097e+00 5.167217803749281357e-02 5.159698768844388217e-03 5.688671197329538132e-02 5.161183972104606887e+00 2.289447024771289630e-03 5.927367634304504806e-02 1.036810417826832520e+01 -5.648426760094445859e-02 5.123908153533680121e+00 5.161561169042237829e+00 -5.589861868526672939e-02 5.125264844591639779e+00 1.036708127251938549e+01 5.096123342239063270e+00 1.253901787379166632e-01 5.256414359091397870e+00 5.095506347138964109e+00 1.277836109683380683e-01 4.747451984395155422e-02 5.036295523942523999e+00 5.191332077305194304e+00 5.254651464184722620e+00 5.036573586835268124e+00 5.191080485647402654e+00 4.669143094880356948e-02 3.702429854346776406e+00 3.850913182237059029e+00 3.622138752590044586e+00 3.688167488550602169e+00 3.844835638539551237e+00 8.823578462370837983e+00 3.640747260644424443e+00 8.908875302458387324e+00 3.607685312157525637e+00 3.647065220313420841e+00 8.913373966205266896e+00 8.822615586783459918e+00 8.843988679704509082e+00 3.911461368134757866e+00 3.614518137753335303e+00 8.851808222793305703e+00 3.912139828572743117e+00 8.810668130328350500e+00 8.799474796183259784e+00 8.985559996782313874e+00 3.619175683337441107e+00 8.789351307171715533e+00 8.977945343187901273e+00 8.829305248820517704e+00 3.906612634503382253e+00 1.242654646120142203e+00 1.592603374514372172e+00 3.910496084177485621e+00 1.249699488321953433e+00 6.807873849611228323e+00 3.848662381929878418e+00 6.309046440123017518e+00 1.601980494915258291e+00 3.852182372849287884e+00 6.302609737382797839e+00 6.806760024215396498e+00 8.691010117830009207e+00 1.457244540868451788e+00 1.592546719812487854e+00 8.686786129415750679e+00 1.442703053402529578e+00 6.806325746244675123e+00 8.643355048118921857e+00 6.501615827410715198e+00 1.583092200321783771e+00 8.627514596195233310e+00 6.505778232629810809e+00 6.802222644693302733e+00 3.789578907696979471e+00 1.322446839972418298e+00 4.202450019010949944e+00 3.773694124943175687e+00 1.325599565034027538e+00 9.413230392678750391e+00 3.705643938298452511e+00 6.387831114457831028e+00 4.208927295287526071e+00 3.709335515960155316e+00 6.388155361766351348e+00 9.415617298986425965e+00 8.820338485619007685e+00 1.373783520711358452e+00 4.216539722928039247e+00 8.823361563554369624e+00 1.366794367571001478e+00 9.415879217665633405e+00 8.775723484490384863e+00 6.428702457234422241e+00 4.204265919326709344e+00 8.785929725042565863e+00 6.440543711926866699e+00 9.413946676833939264e+00 3.765644750898977211e+00 3.832355051030992943e+00 1.026476888032175294e+00 3.762436367503344314e+00 3.820330269053384242e+00 6.227596082714641490e+00 3.702438115517403094e+00 8.894557827750963597e+00 1.022653759421071396e+00 3.713315073970517854e+00 8.888682612404512184e+00 6.232283264042244753e+00 8.781437060337850653e+00 3.932398762150485449e+00 1.021780150943553345e+00 8.778813583435645995e+00 3.928317023383814721e+00 6.228719899632564783e+00 8.722964179098635640e+00 8.997478240317152043e+00 1.021557183510267475e+00 8.717080911598801052e+00 9.007428005969224216e+00 6.231227948311724774e+00 1.245486848066502228e+00 1.341049580194510149e+00 3.576733532268443927e+00 1.258527415392572291e+00 1.345097008498207014e+00 8.783743716436315907e+00 1.192602683455770141e+00 6.420460290602579612e+00 3.587411524833685750e+00 1.193736578111981750e+00 6.408040502452236886e+00 8.784030653800634525e+00 6.297013740022430639e+00 1.336709280832277358e+00 3.649459136064626907e+00 6.288773555167121998e+00 1.344345851647073653e+00 8.855719758607426328e+00 6.242322740537157522e+00 6.413780561729144125e+00 3.647656979700538482e+00 6.248109589848215961e+00 6.421976962784786913e+00 8.852697519214595800e+00 1.218045234054680126e+00 3.871498987609792941e+00 1.525141880591124544e+00 1.218700082557080622e+00 3.865965681796342146e+00 6.734621498499252290e+00 1.150161451178574490e+00 8.945495629392006265e+00 1.517609622943709269e+00 1.171054213779257003e+00 8.943935949687240594e+00 6.748079343960181831e+00 6.270674394090599790e+00 3.882585681450422044e+00 1.591078560628808924e+00 6.268854985472543717e+00 3.879567668366445066e+00 6.810258377204331914e+00 6.214605979704797001e+00 8.936328751504275303e+00 1.589334774254760552e+00 6.222777970946760107e+00 8.945398166902746695e+00 6.802295354420649254e+00 1.210696081644081712e+00 3.880423831897302112e+00 4.130662579494376097e+00 1.216534704545435774e+00 3.879520012571288312e+00 9.340922478020864617e+00 1.163089163405422788e+00 8.949774578519098966e+00 4.138489817887947453e+00 1.153951685821674733e+00 8.946375928260497545e+00 9.343929671510293744e+00 6.275591740825068321e+00 3.867568150113168901e+00 4.220967467266050654e+00 6.276278023891099345e+00 3.877596196379131221e+00 9.417358180203603268e+00 6.210434768207253597e+00 8.943899988278138480e+00 4.218285350201056438e+00 6.219716996285775679e+00 8.942356467396638919e+00 9.418125173617273305e+00 1.245906876966758503e+00 1.356623629945969078e+00 1.001224618354523255e+00 1.245394084904581700e+00 1.354174498039757424e+00 6.199894463516573140e+00 1.195577982425440222e+00 6.417518746045306699e+00 1.009351285329639580e+00 1.198194648332277179e+00 6.402876392011787487e+00 6.219580244946279812e+00