1.040534502049458940e-03 4.359570040212777772e-04 -4.989783970168207511e-04 1.032557587101216303e-03 4.319098337545654027e-04 -4.739786122029319114e-04 1.036585761176891289e-03 4.269341302998933409e-04 -4.949789976457572146e-04 1.029625848355726755e-03 4.198929744620807946e-04 -4.739794324600341696e-04 1.380863384625709777e-04 1.215843107347543486e-03 -5.469156255268911668e-04 1.460976827479749712e-04 1.213887770200950626e-03 -5.349158330543574407e-04 1.351432483759681252e-04 1.205826074960898719e-03 -5.449163049155209991e-04 1.441772966436919768e-04 1.199876627625463430e-03 -5.349168025129353091e-04 -9.818445576313939143e-04 -3.825593425923892797e-04 -3.980183589294482120e-04 -9.788614672758141032e-04 -3.795438864126808132e-04 -3.760181726584480217e-04 -9.808502407300855128e-04 -3.815538151283579568e-04 -3.960182968256996416e-04 -9.778785104438470800e-04 -3.765384616545356094e-04 -3.730179696837116463e-04 -3.239920452726271295e-05 -1.162161737903124551e-03 -5.850815212429723864e-04 -3.038770220607952389e-05 -1.164151674163949480e-03 -5.660816788202119179e-04 -3.138779951668557315e-05 -1.164156443515771593e-03 -5.790816704595400533e-04 -2.938764853661556971e-05 -1.164146552870756572e-03 -5.580816871683070505e-04 -2.689317809379250350e-04 1.218499420210574728e-03 -1.199118849324354872e-04 -2.749316141739174130e-04 1.218464750708068891e-03 -1.119118349847240832e-04 -2.669033912567266996e-04 1.213510869803375702e-03 -1.199122537721382587e-04 -2.719089250478675291e-04 1.214481868541449376e-03 -1.119121417156476077e-04 -7.641044491764401167e-04 8.966312124073367836e-04 5.650697830230515294e-04 -7.540932506707322775e-04 8.946881591070779188e-04 5.640695588723401667e-04 -7.690929821405963641e-04 8.946026819514730317e-04 5.670696837843795021e-04 -7.580875103747221474e-04 8.936655080566160677e-04 5.630695217499933876e-04 -1.443525270996192785e-05 -9.790930117257287853e-04 -6.906879084682075308e-05 -8.458095971510682368e-06 -9.750588995763656563e-04 -7.006855906513311666e-05 -1.042962420840200755e-05 -9.800703283576548547e-04 -6.806889459797715793e-05 -6.435408145554206504e-06 -9.790473253658224257e-04 -7.206885746305360615e-05 5.295837417213331445e-04 -8.040422787644855998e-04 5.629387839398221523e-04 5.265951240750796737e-04 -8.060590180919337960e-04 5.589386680602974377e-04 5.295837591777899974e-04 -8.040424195410337876e-04 5.649387839347913944e-04 5.295950756059895686e-04 -8.060419648937772533e-04 5.589386430763803757e-04 4.369769561177109358e-04 -6.985207816335827283e-04 -9.305298194098345619e-05 4.359599278059476620e-04 -6.955265848976603833e-04 -9.205276230527160595e-05 4.339656357892310193e-04 -6.965378671493512421e-04 -9.305281608356315618e-05 4.359428571531357224e-04 -6.925264925975300979e-04 -9.405255098998608579e-05 -4.599110852331624011e-04 8.624111645893602551e-04 -1.639352825699167196e-04 -4.618997015793224054e-04 8.603999688847494215e-04 -1.659354067824445099e-04 -4.508941599876209396e-04 8.594622318836997064e-04 -1.619355688369534662e-04 -4.558884297199327024e-04 8.584341075986744781e-04 -1.659355976237818990e-04 7.945540441055819756e-04 -6.225153288796743878e-04 3.099492479508468763e-04 7.925654103029651726e-04 -6.245263838077371420e-04 3.059491237433497896e-04 7.995084881334850110e-04 -6.144870361531948452e-04 3.099497698049979684e-04 7.955141935165814353e-04 -6.155094056505604292e-04 3.049497326927125425e-04 -7.178462519031304735e-04 4.989158421064481073e-04 1.660413837687496261e-04 -7.088862491994948499e-04 5.059673813071943315e-04 1.590418018918671010e-04 -7.108861645173975181e-04 5.059555901787788842e-04 1.650418185327197341e-04 -6.989375878086506646e-04 5.150242206483436657e-04 1.570423525479386828e-04 -1.972694418706710730e-04 -1.184161618089379355e-03 2.999183714746022559e-04 -1.962694929399481111e-04 -1.184155652136897538e-03 2.959183631566912913e-04 -2.012921497532712764e-04 -1.180184138769048907e-03 2.959186865435595192e-04 -1.982694606272213382e-04 -1.184167020935668639e-03 2.959183798126360353e-04 1.066042827952411610e-04 1.301614680975382186e-03 1.750906883848109925e-04 1.025986979348233205e-04 1.302591645665937678e-03 1.790907921233906382e-04 1.126212390534159425e-04 1.298648835848113066e-03 1.750904271067219844e-04 1.095928568003525806e-04 1.303631772244200852e-03 1.740908042769124663e-04 2.998874278355722375e-04 -1.552962791091623486e-04 -2.201354857840067628e-05 2.968874588482054897e-04 -1.553131915307706765e-04 -2.401352358945291069e-05 2.968874850328907691e-04 -1.553134026955929582e-04 -2.101352359699894249e-05 2.968760725941786693e-04 -1.533130830718344869e-04 -2.601338271091899602e-05 -2.846669212770763162e-04 1.163897772269807728e-04 -8.598932310284021128e-05 -2.676899684433074180e-04 1.204866289344067634e-04 -8.998918292130250339e-05 -2.776613412446064756e-04 1.154295137932112190e-04 -8.498945183791369159e-05 -2.637070600804306626e-04 1.235091068907085505e-04 -8.698900493048313573e-05 1.647708359805245609e-05 9.209254381326065664e-05 3.700633851255028428e-05 2.247117133766091587e-05 9.312768987487908361e-05 2.200635901919792154e-05 1.346008759901595525e-05 9.507537175041206343e-05 3.800657480420685150e-05 1.545995054754819683e-05 9.508758520847218241e-05 2.600655817844627527e-05 -7.066292947594287147e-06 1.194544492589228847e-05 2.070009030161493136e-04 -1.307189786465586357e-05 1.291146314732144075e-05 2.050010234257657873e-04 -8.054899265432456838e-06 9.939722455844679600e-06 2.080007704681030958e-04 -1.408325050586251908e-05 1.490574643032394472e-05 2.050011726272413703e-04 1.663443129252224149e-05 6.410763702083981976e-05 -1.709956331933029509e-04 1.262868059576448611e-05 6.508593908860318999e-05 -1.859955294069317016e-04 2.153771573136006444e-05 8.113578431806543843e-05 -1.709944774083873686e-04 1.854330894758054996e-05 8.011987349110041043e-05 -1.869945228209763505e-04 3.819571281891376112e-05 -3.476224039463897246e-05 -3.010027809921370394e-04 3.021278179920642231e-05 -3.780675206574183944e-05 -3.140029256459135089e-04 4.513877319297677370e-05 -2.472275196354856922e-05 -2.990021349254581569e-04 3.515018135898275695e-05 -2.677857820395434054e-05 -3.130021924840229656e-04 -1.980393392150599710e-05 1.409118199380953048e-04 -3.139899093967296107e-04 -1.780406224474533920e-05 1.409239630078813299e-04 -3.249899260250055117e-04 -2.082097096149766681e-05 1.439060870622917978e-04 -3.139896897585024087e-04 -2.182104208741845699e-05 1.439011065456472134e-04 -3.239896814053766267e-04 1.897921406309592245e-06 1.705473482900669112e-05 -6.199988176716531192e-04 -2.119084621048775308e-06 2.003208953159487320e-05 -6.219985730444782058e-04 -1.361614019021663180e-07 2.304333946567380497e-05 -6.209983783926833903e-04 -4.136140417590734815e-06 2.302095380950224560e-05 -6.259983450682172785e-04 -1.369653057459451275e-06 6.499474343198076605e-05 -2.099541323035069589e-05 -3.346874421364211410e-06 6.098336888015965575e-05 -1.999567832392776628e-05 -5.335516952209503934e-06 5.897238434037109029e-05 -2.499580252890954175e-05 -7.335440998340663059e-06 5.896066360022961494e-05 -1.999578588554155008e-05
-1.520970557902192070e-03 3.706604865986823372e-02 -2.975037778426142809e-02 -3.267722726274608497e-02 -6.518194684883930889e-02 -2.636130289674491756e-02 -3.192186938304674912e-04 -3.203565131325959020e-02 -3.806125224372891580e-02 -5.703134694105192748e-02 -1.990892906701174567e-02 4.853209654954194346e-02 -3.949150183973054902e-03 -9.120194656001338190e-03 8.500392535705055680e-03 -1.037766466997321925e-02 1.838711436211868527e-02 2.725384822728454341e-03 2.326143738007168879e-02 -2.168728259049876664e-02 -2.613072962725787943e-02 5.439951953348112768e-02 1.534556783318936739e-02 -1.549339470236873843e-02 -8.664866042337822719e-03 -8.949343950433931438e-03 -7.176955448047014907e-02 5.750112056115178755e-02 3.482991089265878581e-02 2.145494978836668190e-02 -2.362213763108554979e-02 -1.811840007932866928e-03 -6.628921369552184285e-03 -1.402226556762851961e-02 -1.813875824179937007e-02 -1.764715441073872598e-02 -3.559323460834857428e-02 7.121304673927460020e-03 -2.151918813190115826e-02 -3.022831245612642333e-03 1.021460147410190554e-02 3.379774545714289702e-02 5.208164855947538911e-03 -4.461115103162446340e-03 -3.338735955222588148e-02 -4.654268111068006475e-02 -1.866178264489854952e-02 -1.221907338593529674e-03 2.619632633941947411e-02 4.733587874748392682e-03 -2.272989551561274343e-02 1.372279005574631415e-02 1.714791141132007701e-02 5.274087249508571142e-03 5.501597831598343570e-03 -2.451446700897164099e-02 1.908322649777531230e-02 -2.689136258570163154e-02 4.375674955138918881e-03 -6.608457306459385519e-03 -2.193272071758088984e-02 1.209061927643376166e-03 6.081027669053745005e-02 -3.382021713120265342e-03 4.366101020489982810e-03 -1.782066320345175592e-02 -1.920562179461266991e-02 -8.753712512594170533e-03 -8.537448549136392173e-03 -1.088877740471012705e-02 3.930216279488755999e-05 -4.539790230804364307e-02 -5.586200523863373707e-02 4.402201894379885461e-02 1.633358625136169251e-02 -1.937772663391027980e-02 -4.844631754439436555e-03 5.717828142338760890e-03 -1.591479826579721493e-02 -1.642167449105139468e-02 1.338898304834724995e-02 -1.675509508459166637e-03 8.405111638894504841e-03 3.549160633480518551e-02 3.379511856055501112e-02 2.332225081352083673e-02 1.747634668542761074e-02 6.941559111266482930e-03 -6.632493674301930854e-03 -3.059352751424945088e-02 -4.856130003617114589e-03 -2.021428910322612543e-02 5.086619549284508192e-03 1.232660315256201185e-02 3.622179336962316667e-03 -7.308526322942811033e-04 -1.207675156426948546e-02 -1.804197441616967740e-02 -1.371716456929760776e-02 3.711959393832733878e-02 -1.897922375309789300e-02 1.305634012974297466e-02 -3.654721629497515584e-02 2.646747079015746278e-03 5.035350541906714189e-02 -4.442637084135802467e-02 9.120013920340924729e-03 2.266202976255482157e-02 1.189566760507357671e-02 -7.289768273738849206e-05 7.328891059188593834e-03 -2.669347794911167571e-03 3.005380269602033264e-02 6.401913889500925048e-02 -1.570258956983747178e-02 -1.239210195223362841e-04 -4.837871678967107895e-03 2.084155237722519483e-02 -4.834366637966758945e-03 -3.179852227253796015e-02 -1.384650426767842493e-04 1.770689009795943167e-02 2.284224762344421594e-02 -4.070131884660523058e-02 -4.671915847098051522e-02 -2.781193330048071372e-02 1.409229565141643589e-02 2.037727663450029925e-02 -1.194168870947982103e-02 1.394224318166524708e-02 1.282799046630332500e-02 -7.523218769897623871e-03 -1.089360691496802334e-02 -5.667430460890345023e-02 4.919610599914781002e-02 4.864322246831151442e-02 3.864996154357931007e-02 1.661729597672842451e-02 1.439768038117883106e-02 2.938903097618599664e-02 6.084994312998327770e-02 6.748395722391797857e-02 7.055532456647037320e-02 -8.216622768536461716e-03 -9.677300584119247207e-02 3.967673237983784795e-02 1.153363746262450230e-02 -1.952398700768729440e-03 -7.997672698902485305e-03 2.051845415021478700e-02 3.059252705129875821e-02 3.573630591514468432e-04 7.706758154990170188e-03 2.558212018395442447e-02 1.282465766974722225e-03 -3.701330169674414781e-04 7.356279285313958860e-02 -6.861910809627085051e-02 -5.452347219059305861e-02 2.066814641244227313e-02 -3.482700779258376175e-03 1.852574467059993173e-03 -3.117982900459046261e-02 3.981348511935424439e-02 -1.140925455697101029e-03 -2.602223345222524215e-02 -1.061289978361711767e-02 -1.692951993828499882e-02 -2.569069236771599068e-02 -3.620875575151925180e-02 -1.228732446850010034e-02 2.053343486790015424e-03 1.683298042812979289e-02 -5.168330789108090562e-04 -2.235830817123477616e-04 -8.522212999209822018e-03 -2.777597919366877905e-03 -2.469074888953578031e-02 -1.633489046039866138e-02 -2.449793433987168881e-02 3.879034134038263516e-04 8.250081437225713354e-03 -2.474742273896442593e-02 2.296362469403111575e-02 2.174792142904506329e-02 -1.470266967008940218e-02 -4.626392173848230954e-03 2.384420470388267169e-02 2.672371879984325113e-02 5.023950299357427679e-02 -3.038658664800759565e-02 -4.585577372781710417e-03 5.129519942371219172e-03 3.303394193540003330e-03 2.580218781349562576e-02 -4.611253161503641590e-02 2.074314965101031055e-02 1.509886259319085169e-02 -4.391411921357591145e-04 -9.656439523595603674e-03 -3.020675874785360045e-03 -1.738508624446501519e-02 2.939043836517867686e-02 3.141522056225528464e-02 2.340691450983348534e-02 4.077533422636154745e-03 -3.426191737653676295e-02 4.572821451638063583e-02 -2.874231300839328110e-02 1.115857777996019477e-02 3.931362749454324866e-03 -2.132563817038044332e-02 9.100464634194005420e-03 5.708240988298859259e-03 -4.065464481080151293e-02 6.187088582449371162e-03 2.394242154028788233e-02 4.557402544598562061e-02 1.148899893096935743e-02 3.325353297690713389e-02 5.274443363194242923e-02 -2.207657771031034874e-02 4.696912796302268184e-02 4.698685028873365171e-02 5.537189750529895177e-02 -3.913741892078119455e-02 -9.478968855599650967e-03 -8.031332580994171577e-02 3.990823029737756641e-03 -2.730371897217443236e-03 2.858177305291258533e-02 6.358103654285548849e-03 2.670523020610339818e-02 -2.352017581907890273e-02 2.540999161423086045e-02 2.968232147214555985e-02 3.689386759596945120e-02 -4.006685586849724479e-02 -3.796140071937889604e-02 4.446776763096924783e-04 4.380650108119422265e-02 -2.367995088332063708e-02 2.245795091246865355e-02 -2.268575422879771236e-03 -1.361375172886502248e-02 9.033061574877619682e-03 2.388368438428855808e-02 -1.341577294327288457e-02 4.550847236091115633e-03 5.254862818132989555e-02 -3.163443524315446426e-02 -5.232685362890433789e-03 -3.532652033066730618e-02 5.166239222688168847e-02 -3.361105531998044571e-02 -1.612689911669086193e-02 2.354596552399370810e-02 2.474879818138601278e-02 2.934198669286293762e-02 -1.983072622407763136e-02 -2.559265201852934171e-02 -2.332527071506906510e-02 2.816415283934087591e-02 2.430718607554130731e-02 -1.802978456859956335e-02 -4.584731807824356242e-02 -1.293706977805449826e-02 -4.698976880076910327e-03 -5.542018629815096548e-02 8.233140103189293818e-03 -1.505881947649878767e-02 -3.847197030398646911e-02 -3.196757661918407656e-02 -1.889488257668768892e-02 2.484017408626494963e-02 -4.512908673768211559e-02
-4.156009767924955835e-03 7.361373282041279442e-02 -5.916978233062713394e-02 -6.580772961097047791e-02 -1.310185720854712688e-01 -5.142764791562588755e-02 -1.144900872564232367e-03 -6.416622634879776133e-02 -7.550850674690140485e-02 -1.140400607394327637e-01 -3.975179849565154550e-02 9.805919755386335868e-02 -7.816840969219583310e-03 -1.937596989503555592e-02 1.735970442975934627e-02 -2.111150928762834875e-02 3.575014919473842867e-02 5.994700672454409372e-03 4.682858700789981760e-02 -4.490587523028435196e-02 -5.193356970828880148e-02 1.083974376835919740e-01 2.886177028398833819e-02 -3.023491466344959203e-02 -1.549699519051894216e-02 -1.643831906295497441e-02 -1.425060221620459144e-01 1.165878062232038881e-01 7.044578639831464151e-02 4.377694106243251032e-02 -4.572680369927645955e-02 -3.350069615164306437e-03 -1.297483672426704739e-02 -2.664423507033490679e-02 -3.597260806544490958e-02 -3.449429957959174869e-02 -7.099510468571465505e-02 1.593965580784092312e-02 -4.206225847944899954e-02 -5.852292224801666255e-03 2.142126393133373177e-02 6.836555905790331344e-02 1.048076675878074730e-02 -7.766874910852837599e-03 -6.635363834234865588e-02 -9.343784526881536434e-02 -3.653461825446827071e-02 -1.562756065798173765e-03 5.236543715170490637e-02 8.802933398567705514e-03 -4.436783754580816280e-02 2.756960851129729856e-02 3.270752036508692284e-02 1.029006161795097130e-02 1.157508248738993266e-02 -5.023870899621519365e-02 3.825536285024266903e-02 -5.331073331460237791e-02 7.170999835037890346e-03 -1.311002997041691397e-02 -4.404033986310964405e-02 2.401066487206420050e-03 1.225135537092358201e-01 -6.238397033511757298e-03 8.091227497368369895e-03 -3.632037611366520369e-02 -3.824611658066071757e-02 -1.788147621923321523e-02 -1.730492486893560333e-02 -2.114714183902267897e-02 -6.967838274860539347e-04 -9.137586469816857959e-02 -1.115533130506180387e-01 8.897799250604779275e-02 3.310423675339029675e-02 -3.890915515562434757e-02 -8.511099161986803580e-03 1.116574055449875112e-02 -3.161208912625562695e-02 -3.205211325505630260e-02 2.696901989243797454e-02 -3.387437566530123682e-03 1.723504918437877148e-02 7.061324288931153381e-02 6.701734032813665143e-02 4.715226353893008787e-02 3.480673411134677792e-02 1.315962997175326721e-02 -1.230205987780866664e-02 -6.153498093580059974e-02 -1.022918240444686301e-02 -3.956448411650634323e-02 9.910304431816046450e-03 2.413235547818646382e-02 8.095449522724578253e-03 -1.998640813018208624e-03 -2.465203170000622099e-02 -3.546476562198509763e-02 -2.753428120433785986e-02 7.400281804089378634e-02 -3.736580522004345761e-02 2.644872403848880921e-02 -7.373823442836521802e-02 6.312826837586993367e-03 1.010500882073147727e-01 -8.917930576041041557e-02 1.886617754943026651e-02 4.538210644917883840e-02 2.444144315719033386e-02 -1.042133812109379736e-03 1.493371335306433074e-02 -5.291958876424024752e-03 5.945083819485517257e-02 1.283542311541749914e-01 -3.081598050583150145e-02 -1.336515949460429257e-03 -9.596825130273571244e-03 4.201828782096858617e-02 -1.022687867626443682e-02 -6.300508675603273823e-02 -1.098920415364011173e-03 3.593713387881763976e-02 4.543253925873651233e-02 -8.211664547483522869e-02 -9.291231439327400643e-02 -5.637282334641073589e-02 2.743752569905644201e-02 4.146733344864874521e-02 -2.410032072757944260e-02 2.706072040612430771e-02 2.649134646714373931e-02 -1.553837155107698140e-02 -2.023040595143918430e-02 -1.140137840394628843e-01 9.858515159009849371e-02 9.756788040908881410e-02 7.651859851464096196e-02 3.198153449778371599e-02 2.883601038846574094e-02 5.848827397079385537e-02 1.219038655080045275e-01 1.353507208448028465e-01 1.399128768794454525e-01 -1.744233318995448354e-02 -1.931276290543272323e-01 7.946190977856178173e-02 2.214427890444592081e-02 -3.804015241748536988e-03 -1.490173012236146663e-02 4.068598439758893542e-02 6.162012533092003225e-02 2.110247982451885027e-03 1.504161074001928756e-02 5.138716814347598499e-02 3.985240494530972732e-03 -1.007168007274365264e-03 1.484110290655750730e-01 -1.396018360401329594e-01 -1.106281219759282647e-01 4.109445145475568162e-02 -8.225780088782583960e-03 3.470062328505931978e-03 -6.196805552842220982e-02 7.793819856688981307e-02 -2.701973200170171546e-03 -5.244820837658021456e-02 -2.250410390423310258e-02 -3.402012633066344577e-02 -5.140268855093960837e-02 -7.218765530315437995e-02 -2.419963257093113787e-02 3.977060385991651112e-03 3.395220630247803434e-02 -7.166448772908083631e-04 -5.717938190665108151e-04 -1.693414321581202323e-02 -5.405186987963056175e-03 -4.981446748520084594e-02 -3.232424862698011353e-02 -4.882384057883036588e-02 9.918769952513069744e-04 1.631334793685860346e-02 -4.892486051198595420e-02 4.622682489066116951e-02 4.357153895789088460e-02 -2.929133662653764583e-02 -9.089022453510529898e-03 4.737931635524992441e-02 5.371641441448535281e-02 1.007811530408157658e-01 -6.097444275187121482e-02 -9.402171550362633037e-03 9.922822775089764485e-03 6.643884626355628896e-03 5.150738117246726755e-02 -9.235321108069012574e-02 4.133654350471294842e-02 3.055171576472371503e-02 -1.492420476838524340e-03 -1.929036792883601775e-02 -6.066344804777266085e-03 -3.494667944328567338e-02 5.886986032178850164e-02 6.303644892902318664e-02 4.741116409965854400e-02 8.449475826437669729e-03 -6.864781924412234615e-02 9.183455394711309561e-02 -5.732948015510834494e-02 2.240316318022553960e-02 7.984800788688357909e-03 -4.248856485504892699e-02 1.798893965533442454e-02 1.130155659611221074e-02 -8.149893300647496897e-02 1.219016481886030408e-02 4.759594016648771575e-02 9.113039653385966721e-02 2.314599914131212563e-02 6.677315855135071421e-02 1.063524185839000435e-01 -4.450509696013592309e-02 9.336308076412035140e-02 9.241941481945679937e-02 1.106176906270489452e-01 -7.845393605170852824e-02 -1.982096056131983641e-02 -1.607567108036894177e-01 8.038102010125013769e-03 -5.540441138938875278e-03 5.740454000391238820e-02 1.287097492338181749e-02 5.345136104919397113e-02 -4.732735011080155263e-02 4.998590621312070520e-02 5.902390008711872610e-02 7.373271848751358770e-02 -8.033912036278038904e-02 -7.567594739615950139e-02 6.383745204714973186e-04 8.726385566055644416e-02 -4.680689970927232740e-02 4.523094379802054810e-02 -4.409904985906797255e-03 -2.726980892910079238e-02 1.846511906231880842e-02 4.774858708823077197e-02 -2.722166754436796537e-02 9.223667176429650033e-03 1.048934668552669314e-01 -6.313005110634813122e-02 -1.011835917493007775e-02 -7.108381785367907935e-02 1.038123335474882281e-01 -6.707907256194012291e-02 -3.202460078400360538e-02 4.670717168526913876e-02 5.029256728173647079e-02 5.850914669036155757e-02 -3.969149214987913871e-02 -5.054030462395171786e-02 -4.652607186739408929e-02 5.607096890746188222e-02 4.918435295262635343e-02 -3.597258406401200592e-02 -9.221916728791619555e-02 -2.563117723556449651e-02 -9.579970400617565315e-03 -1.113654298206287335e-01 1.666624483769256135e-02 -2.979542496719037384e-02 -7.627613908073703486e-02 -6.335510904386947029e-02 -3.837595778729047807e-02 4.988708683750669309e-02 -9.121615380937285467e-02
-6.627521889757657242e-03 1.098933373435857230e-01 -8.852020717378410175e-02 -9.823304959537725034e-02 -1.972362371307710693e-01 -7.589502590872750087e-02 -1.389169206133993332e-03 -9.583952126902227364e-02 -1.124977341364765543e-01 -1.700067962172694680e-01 -5.923575347459929946e-02 1.477903147274418350e-01 -1.176192816522245860e-02 -2.956218600519882472e-02 2.624802189556717236e-02 -3.216973043209429145e-02 5.335434755918051081e-02 9.214036328371843707e-03 7.090347900231522282e-02 -6.842958454580866379e-02 -7.776543569772029207e-02 1.620342575165227839e-01 4.169089309004375687e-02 -4.475047983456386519e-02 -2.167322723696164452e-02 -2.285060615986640384e-02 -2.124224197801675151e-01 1.758801830319219883e-01 1.062928195134741627e-01 6.631694681251258661e-02 -6.752224046875326957e-02 -4.927552005221226203e-03 -1.917975754058684826e-02 -3.907572400429389775e-02 -5.353838213132176838e-02 -5.118042754120775278e-02 -1.059236706023576335e-01 2.488265650922986613e-02 -6.199632418270389217e-02 -8.205009743036601952e-03 3.232262871004323856e-02 1.029723470082592879e-01 1.565881421771618889e-02 -1.097517957495926406e-02 -9.919290944715981884e-02 -1.406022466995471565e-01 -5.436600632732561944e-02 -1.581599524807875265e-03 7.797447111678111609e-02 1.323705272434499806e-02 -6.531874900999846967e-02 4.115452655830986045e-02 4.789665247863703068e-02 1.505201219445562871e-02 1.744558629879061629e-02 -7.579109632615783909e-02 5.734651307072221454e-02 -7.975813107145202085e-02 9.795158829543704551e-03 -1.955761443768359864e-02 -6.691184788066630029e-02 4.452660483311617068e-03 1.853838979032831902e-01 -9.144597378892808590e-03 1.213708487541033734e-02 -5.494706601361925430e-02 -5.743321699219570975e-02 -2.655107546908099664e-02 -2.593636765937989280e-02 -3.146176043335302541e-02 -1.388194783893877474e-03 -1.372698234524845351e-01 -1.667446593842661917e-01 1.334147814895133288e-01 5.013284634778333859e-02 -5.840651162997659990e-02 -1.219036260203774751e-02 1.646465176820469806e-02 -4.693079021627317299e-02 -4.743339558657841404e-02 4.054407096978943081e-02 -5.357055739115183443e-03 2.583353198304929113e-02 1.055388654008028726e-01 9.983190560124746704e-02 7.056894751545790545e-02 5.220509600205865824e-02 1.908247444077086283e-02 -1.793231898628892818e-02 -9.225842901324143863e-02 -1.575054448000492990e-02 -5.886052595525603087e-02 1.479999442074281940e-02 3.594582856295646528e-02 1.261776903752652272e-02 -3.332425608799073624e-03 -3.688843274538971401e-02 -5.268961702244739920e-02 -4.149738686491816209e-02 1.107769537823231898e-01 -5.591301227143172237e-02 3.988209759332821819e-02 -1.107485363859655875e-01 1.020495279537053136e-02 1.515296853286863810e-01 -1.333266599302243560e-01 2.868778623926694984e-02 6.808118316055054853e-02 3.674435151638098807e-02 -2.211734925659858582e-03 2.227152366272335329e-02 -8.317311287666556349e-03 8.897661199927693609e-02 1.923263359893132018e-01 -4.583221491841708850e-02 -2.400551342971117552e-03 -1.442476897290853079e-02 6.281879208051809049e-02 -1.522754261444205122e-02 -9.393362037348497451e-02 -1.990025421492537788e-03 5.410577855740130587e-02 6.791382595259427835e-02 -1.231656777274848513e-01 -1.388043829361352566e-01 -8.493869539643328359e-02 4.077479178035511853e-02 6.255133038457047490e-02 -3.605295310219395338e-02 4.025050504602818019e-02 3.992509494199088238e-02 -2.342354111599426886e-02 -2.914119107735732572e-02 -1.710028280756982766e-01 1.478592181289558327e-01 1.453689106621627036e-01 1.139658811161090440e-01 4.678375316629759806e-02 4.257704705520187066e-02 8.710858378209752895e-02 1.824147602595152518e-01 2.021399237209378918e-01 2.083093436039526458e-01 -2.745210185730419250e-02 -2.884174946889084823e-01 1.182361745620159332e-01 3.202783989459687120e-02 -5.660501003433807132e-03 -2.165281620474073659e-02 6.090252545497470971e-02 9.254601511045904005e-02 3.811554343443751287e-03 2.237046058224234288e-02 7.703300365972352848e-02 6.725102764287053947e-03 -1.530198997123871944e-03 2.239166103106731143e-01 -2.109967606357526781e-01 -1.677748065151530577e-01 6.095797720861634295e-02 -1.283307049526684687e-02 5.289564660472710449e-03 -9.230555041481842971e-02 1.154074754690633808e-01 -4.432071014204353072e-03 -7.840561200285046939e-02 -3.414264032645112495e-02 -5.111171902799847844e-02 -7.685563132208222958e-02 -1.078230904081867031e-01 -3.591791875808188206e-02 6.001759857069122010e-03 5.107499611677632917e-02 -7.724573058479709126e-04 -8.797671028333330437e-04 -2.521184112955394269e-02 -8.052766959431079119e-03 -7.464427930141862011e-02 -4.811995678947021682e-02 -7.281173575153476740e-02 1.562744336380262212e-03 2.421941758006508280e-02 -7.301530906064526705e-02 6.940043009876474545e-02 6.532364631962034318e-02 -4.388400783446767817e-02 -1.366678221959266408e-02 7.076077974634349677e-02 8.058610021865864059e-02 1.509432322338928045e-01 -9.128743281869299009e-02 -1.449174306830311801e-02 1.426569805337461576e-02 1.005783851640278115e-02 7.689058363302953003e-02 -1.381864925870213423e-01 6.186124445430711549e-02 4.611256054549080913e-02 -2.910033983465187130e-03 -2.869037512820853467e-02 -8.947994089054342806e-03 -5.247618754498085958e-02 8.815846256654705226e-02 9.464366358423959014e-02 7.176171569407693851e-02 1.276938076665808802e-02 -1.029607277969545598e-01 1.376606901459531962e-01 -8.570526118619702094e-02 3.399576590614792476e-02 1.199639709955632565e-02 -6.350371812267298355e-02 2.675142544287787902e-02 1.687833022855459233e-02 -1.220722967695208189e-01 1.799326026905357853e-02 7.097528710594389056e-02 1.363642106717543601e-01 3.470697904021946556e-02 1.005767125595675576e-01 1.603250517045215207e-01 -6.733559302220958054e-02 1.388598941639315187e-01 1.366409358784383965e-01 1.647874063332700201e-01 -1.174714308545088126e-01 -3.086928441177441002e-02 -2.409091481241410759e-01 1.210423027943266158e-02 -8.324381751106984390e-03 8.592830862878836351e-02 1.924099085719806548e-02 8.017167745627089281e-02 -7.110652497261336913e-02 7.365532668012599038e-02 8.774535405714960212e-02 1.100285336402761632e-01 -1.203409728311833904e-01 -1.131109256609111741e-01 4.520886817975994557e-04 1.300250973856005021e-01 -6.921277090815576571e-02 6.767799351399424179e-02 -6.444549329824617208e-03 -4.087025547908776368e-02 2.785017953280650993e-02 7.172821991208190584e-02 -4.097990230094673142e-02 1.379848946982519323e-02 1.566518545537667062e-01 -9.419600118709126058e-02 -1.489699762458955752e-02 -1.072077862929229353e-01 1.557271974731403719e-01 -1.006991031505867634e-01 -4.767612319156527834e-02 6.948576787750379569e-02 7.588130730223587028e-02 8.722415119410534268e-02 -5.952584443405269099e-02 -7.525295142305589435e-02 -6.958447926512041637e-02 8.390860828411442207e-02 7.384851371710247914e-02 -5.395105480039577572e-02 -1.384732089117135523e-01 -3.844527608975693150e-02 -1.475776262913942177e-02 -1.671713421551897782e-01 2.487136196943112026e-02 -4.401633707871972084e-02 -1.133204034786802206e-01 -9.418459247988308913e-02 -5.810416771287357784e-02 7.460461544666296962e-02 -1.376722419097248518e-01