-9.269685631199999989e+02
-9.269637843599999769e+02
-9.269494657200000347e+02
-9.269257476699999643e+02
-9.268928777300000093e+02
-9.268511917499999981e+02
-9.268011220399999956e+02
-9.267431891300000188e+02
-9.266779857899999797e+02
-9.266061836000000085e+02
-9.265285132799999701e+02
-9.264457693900000095e+02
-9.263587829000000511e+02
-9.262684290900000406e+02
-9.261756103899999744e+02
-9.260812316699999656e+02
-9.259862061600000516e+02
-9.258914411499999915e+02
-9.257978288000000475e+02
-9.257062167599999611e+02
-9.256174103900000318e+02
-9.255321716400000014e+02
-9.254511957099999790e+02
-9.253751101100000369e+02
-9.253044612800000550e+02
-9.252397076299999981e+02
-9.251812294000000065e+02
-9.251293061100000159e+02
-9.250841276999999536e+02
-9.250457841400000234e+02
-9.250142824499999961e+02
-9.249895260399999870e+02
-9.249713448400000289e+02
-9.249594805299999507e+02
-9.249536016399999880e+02
-9.249533087500000192e+02
-9.249581362000000126e+02
-9.249675846200000251e+02
-9.249811036300000069e+02
-9.249981095800000048e+02
-9.250180070899999691e+02
-9.250401840600000014e+02
-9.250640277799999467e+02
-9.250889318099999628e+02
-9.251143109700000196e+02
-9.251395948499999804e+02
-9.251642559800000072e+02
-9.251878063699999757e+02
-9.252097933799999510e+02
-9.252298143299999538e+02
-9.252475314700000126e+02
-9.252626485700000103e+02
-9.252749307399999452e+02
-9.252842075800000430e+02
-9.252903568000000405e+02
-9.252933194500000127e+02
-9.252930975799999942e+02
-9.252897376700000223e+02
-9.252833369100000027e+02
-9.252740479100000357e+02
-9.252620623000000251e+02
-9.252475953900000150e+02
-9.252309202100000221e+02
-9.252123290800000177e+02
-9.251921204200000375e+02
-9.251706294800000023e+02
-9.251481933400000344e+02
-9.251251517700000022e+02
-9.251018525399999817e+02
-9.250786339500000395e+02
-9.250558283300000539e+02
-9.250337535500000286e+02
-9.250127105399999436e+02
-9.249929769000000306e+02
-9.249748081000000184e+02
-9.249584267300000420e+02
-9.249440283400000453e+02
-9.249317727500000501e+02
-9.249217880100000002e+02
-9.249141616399999748e+02
-9.249089624499999900e+02
-9.249062046699999655e+02
-9.249058787400000483e+02
-9.249079435200000034e+02
-9.249123125400000163e+02
-9.249188814300000558e+02
-9.249275034700000333e+02
-9.249380246800000123e+02
-9.249502518699999882e+02
-9.249639820800000507e+02
-9.249789819999999736e+02
-9.249950182899999618e+02
-9.250118293399999629e+02
-9.250291595800000550e+02
-9.250467461099999582e+02
-9.250643223199999738e+02
-9.250816341600000214e+02
-9.250984224400000357e+02
-9.251144492700000228e+02
-9.251294817699999840e+02
