-9.332018967999999859e+02
-9.277184216000000561e+02
-9.278357901000000538e+02
-9.227418857500000513e+02
-9.321363501299999825e+02
-9.333117849000000206e+02
-9.202591069200000220e+02
-9.174875564000000168e+02
-9.282718546999999489e+02
-9.250022791599999437e+02
-9.380998262800000020e+02
-9.239206665699999803e+02
-9.245155222099999719e+02
-9.257653710600000068e+02
-9.314925858000000289e+02
-9.172687425000000303e+02
-9.232987269000000197e+02
-9.244027982799999563e+02
-9.100944970499999727e+02
-9.301253102299999682e+02
-9.404135261999999784e+02
-9.340263380799999595e+02
-9.198317914000000428e+02
-9.185689541899999995e+02
-9.296591057199999568e+02
-9.310301349699999491e+02
-9.326643876299999647e+02
-9.119115685199999461e+02
-9.184608499600000187e+02
-9.299110934100000350e+02
-9.248402683399999660e+02
-9.249720313699999679e+02
-9.399504056299999775e+02
-9.279428777000000537e+02
-9.152297326299999440e+02
-9.226694747100000313e+02
-9.175782803900000317e+02
-9.234994424000000208e+02
-9.350353774100000237e+02
-9.347601809799999728e+02
-9.394011350499999935e+02
-9.398854905900000176e+02
-9.296158697099999699e+02
-9.251896892500000149e+02
-9.403303837600000179e+02
-9.415343091400000048e+02
-9.207773419000000104e+02
-9.339326903999999558e+02
-9.372136441300000342e+02
-9.377820353700000169e+02
