1.929929999999999979e-01 2.194548999999999861e+00 1.540310999999999986e+00 -7.402769999999999628e-01 1.603890999999999956e+00 -1.468585999999999947e+00 -3.581535999999999831e+00 1.735808000000000018e+00 1.731657000000000002e+00 4.669530000000000070e-01 1.413367999999999958e+00 2.264629999999999921e+00 2.609097999999999917e+00 8.396080000000000210e-01 5.386710000000000109e-01 7.801949999999999719e-01 -1.902072999999999903e+00 -4.558039999999999869e-01 2.334543000000000035e+00 8.171340000000000270e-01 1.202170000000000044e-01 -3.444221000000000199e+00 -6.769659999999999567e-01 -2.558768000000000153e+00 -7.463300000000000489e-01 -8.849099999999999744e-01 -8.568599999999999550e-01 2.362170000000000103e-01 -6.690500000000000336e-01 2.078866999999999798e+00 -1.383329000000000031e+00 -1.896990000000000065e-01 -1.269290999999999947e+00 -4.100460000000000216e-01 2.875849999999999795e+00 1.030660000000000048e-01 -1.118378000000000094e+00 -1.310184999999999933e+00 -1.636973999999999929e+00 -2.733350000000000168e+00 -2.479497999999999980e+00 1.304214999999999902e+00 3.337089000000000194e+00 7.368930000000000202e-01 1.150479000000000029e+00 -3.099457000000000129e+00 1.244739999999999958e+00 1.936898999999999926e+00 -1.719961999999999991e+00 6.500089999999999479e-01 7.639080000000000314e-01 2.206221999999999905e+00 5.434989999999999544e-01 6.033990000000000187e-01 6.109050000000000313e-01 8.077950000000000408e-01 1.479746000000000006e+00 2.068995000000000140e+00 1.085820999999999925e+00 -1.481972999999999985e+00 -5.228800000000000114e-01 -3.585800000000000098e-01 -1.993025999999999964e+00 -7.517359999999999598e-01 1.264720000000000011e-01 1.455170000000000075e-01 7.818530000000000202e-01 -5.664519999999999555e-01 5.142250000000000432e-01 1.352268999999999943e+00 1.499390000000000001e+00 1.144072999999999896e+00 -3.915770000000000195e+00 1.401151999999999953e+00 -4.070373000000000019e+00 -1.751536999999999900e+00 6.547330000000000094e-01 -1.145070000000000032e+00 6.797379999999999534e-01 -4.915359999999999729e-01 -2.049589000000000105e+00 -3.724753000000000203e+00 -1.574781999999999904e+00 4.768240000000000256e-01 3.266480000000000050e+00 -3.338280000000000136e-01 -2.461666999999999828e+00 -4.552080000000000015e-01 -1.715182999999999902e+00 -9.039209999999999745e-01 -3.172490000000000032e-01 2.527051000000000158e+00 7.526899999999999702e-01 -1.318743999999999916e+00 6.075549999999999562e-01 1.529598999999999931e+00 8.865129999999999955e-01 7.902099999999999680e-01 -1.218631999999999938e+00 4.561540000000000039e-01 1.145877000000000034e+00 -7.235489999999999977e-01 -2.323160999999999810e+00 2.212680000000000202e+00 -1.316548000000000052e+00 7.935510000000000064e-01 1.541182999999999970e+00 -6.420299999999999896e-01 -4.388329999999999731e-01 -1.412327000000000110e+00 1.447794000000000025e+00 -6.221800000000000247e-02 -2.513259999999999827e+00 -1.034340999999999955e+00 1.154157000000000100e+00 -9.027950000000000141e-01 -1.908120000000000094e-01 -9.064759999999999485e-01 -5.012510000000000021e-01 -1.482715999999999923e+00 -1.409413999999999945e+00 -1.464959999999999873e-01 -6.770049999999999679e-01 -1.129126000000000074e+00 6.226140000000000008e-01 2.346858000000000111e+00 -1.336953999999999976e+00 -2.062806999999999835e+00 -5.004260000000000375e-01 -7.743910000000000515e-01 5.632000000000000339e-01 -1.296578999999999926e+00 3.545119999999999938e-01 -4.386269999999999891e-01 -5.096760000000000179e-01 2.922556000000000154e+00 4.411398000000000152e+00 -2.152050000000000018e+00 -6.312900000000000178e-01 5.815300000000000330e-02 -2.512725999999999793e+00 9.143630000000000368e-01 -2.007829999999999782e+00 1.139896999999999938e+00 -1.469940999999999942e+00 -7.089900000000000369e-02 -1.023198000000000052e+00 1.097367999999999899e+00 -1.812985999999999986e+00 1.503797000000000050e+00 -1.477513000000000076e+00 -2.880132999999999832e+00 -3.348380000000000245e-01 3.709199999999999997e-02 -3.991160000000000263e-01 2.177376999999999896e+00 -3.679760000000000253e-01 3.264082000000000150e+00 2.095832999999999835e+00 -2.037500000000000075e-02 -1.014623000000000053e+00 -8.853090000000000126e-01 6.806079999999999908e-01 -4.593400000000000261e-02 -5.122100000000000264e-02 2.865940000000000154e-01 2.762585000000000068e+00 1.263120000000000021e+00 -6.919750000000000068e-01 -2.581809999999999938e-01 2.407966000000000051e+00 1.256801000000000057e+00 -1.904940999999999995e+00 -6.133319999999999883e-01 -1.271644999999999914e+00 -3.678200000000000219e-02 1.053898000000000001e+00 -3.587035000000000196e+00 -2.231603999999999921e+00 2.350509000000000182e+00 9.348700000000000065e-02 1.190409999999999940e-01 -1.051871999999999918e+00 4.465660000000000185e-01 -2.502670000000000172e+00 -3.173725000000000129e+00 -1.565930000000000100e-01 -1.571839999999999904e-01 9.866310000000000358e-01 1.776456000000000035e+00 -2.357895000000000074e+00 -3.017713000000000090e+00 3.205728000000000133e+00 7.430599999999999705e-02 -2.037494999999999834e+00 -8.538350000000000106e-01 -2.528549999999999964e-01 1.594074999999999909e+00 2.721194000000000113e+00 -1.980134000000000061e+00 1.724631000000000025e+00 5.972849999999999548e-01 1.440885999999999889e+00 2.215509999999999979e-01 3.900299999999999878e-01 1.817568999999999990e+00 -5.369730000000000336e-01 -2.186265000000000125e+00 2.376028999999999947e+00 2.373066999999999815e+00 -4.475529999999999786e-01 2.251470000000000138e-01 1.120030000000000053e-01 -9.319110000000000449e-01 -8.785830000000000028e-01 -2.145499999999999907e-01 1.923175000000000079e+00 9.220939999999999692e-01 2.029509999999999925e-01 -1.142681000000000058e+00 -2.105541999999999803e+00 7.580069999999999864e-01 2.310982999999999787e+00 -2.458286999999999889e+00 1.801030000000000131e-01 2.289963000000000193e+00 -2.992574999999999985e+00 2.178355999999999959e+00 -3.287790999999999908e+00 -2.159996000000000027e+00 -1.724930999999999992e+00 2.562005999999999784e+00 5.825719999999999787e-01 5.166359999999999841e-01 7.184400000000000508e-02 -5.270460000000000145e-01 1.112657000000000007e+00 9.499929999999999763e-01 -1.218895999999999979e+00 2.565512000000000015e+00 5.198990000000000000e-01 1.634599999999999942e-01 -6.325429999999999664e-01 -1.980329999999999924e+00 1.399834000000000023e+00 -1.589210000000000012e+00 -4.174059999999999993e-01 7.815600000000000325e-01 1.861506000000000105e+00 7.714940000000000131e-01 -1.435224999999999973e+00 5.546539999999999804e-01 1.665210000000000024e-01 -1.548286999999999969e+00 6.721000000000000411e-03 -3.826100000000000056e-01 -8.352150000000000407e-01 -1.876997999999999944e+00 9.039829999999999810e-01 6.943820000000000547e-01 -9.313909999999999689e-01 6.580420000000000158e-01 -2.448170000000000068e-01 -5.222719999999999585e-01 5.317319999999999824e-01 -8.108889999999999709e-01 8.976560000000000095e-01 2.189398000000000177e+00 2.386836000000000180e+00 9.329870000000000108e-01 3.628810000000000091e+00 3.307916000000000079e+00 5.570559999999999956e-01 9.476529999999999676e-01 1.230499999999999927e+00 -4.762370000000000214e-01
1.262715999999999950e+00 -7.512729999999999686e-01 -6.152570000000000539e-01 5.135619999999999630e-01 1.225972999999999979e+00 1.688699999999999923e-02 1.203214000000000006e+00 2.858760000000000190e-01 1.370816999999999952e+00 -1.309347999999999956e+00 9.494340000000000002e-01 1.144799999999999984e-02 3.641019999999999812e-01 4.392320000000000113e-01 4.606500000000000039e-01 4.213839999999999808e-01 -6.921310000000000517e-01 -1.664559999999999929e-01 6.476790000000000047e-01 -5.065000000000000058e-02 5.974230000000000373e-01 -8.414559999999999818e-01 -1.622257999999999978e+00 2.556410000000000071e-01 8.153240000000000487e-01 1.935370999999999952e+00 1.754059999999999953e+00 -3.086510000000000087e-01 -2.277689999999999992e-01 1.464850000000000041e-01 1.581700000000000050e-01 2.338989999999999958e-01 4.732680000000000220e-01 -1.376076000000000077e+00 8.904299999999999715e-02 -8.901090000000000391e-01 -6.635269999999999779e-01 -8.593589999999999840e-01 1.687059999999999949e-01 3.519880000000000231e-01 -1.403215000000000101e+00 3.985290000000000221e-01 -2.072820999999999803e+00 -1.972566000000000042e+00 8.939449999999999896e-01 5.938489999999999602e-01 -7.374469999999999636e-01 9.159749999999999837e-01 3.758429999999999827e-01 1.646779999999999911e-01 -8.792480000000000295e-01 -2.125960000000000072e-01 1.213099999999999942e-02 -7.176390000000000269e-01 1.260483999999999938e+00 3.321390000000000176e-01 -7.960159999999999458e-01 4.214990000000000125e-01 3.939599999999999769e-01 5.382299999999999862e-01 9.768029999999999768e-01 5.349369999999999958e-01 -1.537657999999999969e+00 2.044159999999999866e-01 1.442023999999999972e+00 4.947000000000000008e-03 3.884989999999999832e-01 1.230731999999999937e+00 -4.323159999999999781e-01 -1.906058999999999948e+00 -2.701330000000000009e+00 -2.169756000000000018e+00 -5.551000000000000378e-01 -1.421338999999999908e+00 -5.467319999999999958e-01 2.228051999999999921e+00 2.098300000000000165e-02 1.313928999999999903e+00 1.855289999999999995e-01 -2.092802999999999969e+00 1.628660000000000108e-01 5.099869999999999681e-01 -2.519398999999999944e+00 -3.858210000000000250e-01 2.519170000000000020e-01 -3.845970000000000222e-01 -1.686855999999999911e+00 -4.134849999999999914e-01 -1.667130000000000001e-01 4.365740000000000176e-01 -7.945240000000000080e-01 2.051530000000000020e-01 -6.744269999999999987e-01 2.935110000000000219e-01 6.884299999999999864e-01 -3.233190000000000230e-01 5.310489999999999933e-01 -7.935489999999999489e-01 -8.916929999999999579e-01 6.772939999999999516e-01 1.410699999999999975e-02 8.978209999999999802e-01 2.005500000000000060e+00 -3.852720000000000034e-01 -1.320181000000000049e+00 -4.748220000000000218e-01 6.970060000000000144e-01 1.288329999999999975e+00 7.848000000000000809e-03 -3.554700000000000082e-01 7.326529999999999987e-01 -3.009220000000000228e-01 2.570660000000000167e-01 -2.355949999999999989e-01 -3.700390000000000068e-01 6.967740000000000045e-01 7.174669999999999659e-01 -1.152328000000000019e+00 -8.190600000000000658e-02 -1.051959000000000088e+00 -1.057431000000000010e+00 -9.521269999999999456e-01 5.805000000000000264e-03 -8.163770000000000193e-01 7.338940000000000463e-01 1.039455000000000018e+00 1.486290000000000111e-01 5.689459999999999518e-01 -5.624390000000000223e-01 1.517098999999999975e+00 1.575431000000000026e+00 -5.843009999999999593e-01 -2.132670000000000121e-01 -3.662699999999999845e-01 -9.149059999999999970e-01 1.612389999999999934e-01 -5.502029999999999976e-01 -1.827219999999999955e-01 1.078980000000000050e+00 1.093169000000000057e+00 -1.019625999999999921e+00 9.534010000000000540e-01 1.088235999999999981e+00 1.259306999999999954e+00 -3.192300000000000137e-01 1.494499000000000022e+00 -8.297529999999999628e-01 1.432336000000000054e+00 -6.714539999999999953e-01 4.039170000000000260e-01 -1.047876999999999947e+00 1.470442999999999945e+00 -1.608300000000000007e-01 4.569340000000000068e-01 -7.970099999999999962e-01 5.299629999999999619e-01 1.054424999999999946e+00 -2.174109999999999931e-01 2.977699999999999791e-01 -7.750299999999999967e-01 8.658699999999999730e-02 8.215899999999999592e-02 6.803240000000000398e-01 1.458653999999999895e+00 -5.960379999999999567e-01 1.169069999999999970e-01 -2.360549999999999871e-01 -6.953650000000000109e-01 -6.499899999999999567e-01 7.228689999999999838e-01 3.440639999999999810e-01 -6.544099999999999917e-02 -1.946090000000000042e-01 2.068830000000000113e-01 -2.935639999999999916e-01 -1.376910000000000078e+00 -1.100284000000000040e+00 -4.925069999999999726e-01 -9.985049999999999759e-01 4.947940000000000116e-01 -4.974190000000000000e-01 3.610499999999999821e-01 -1.921621999999999941e+00 4.176710000000000145e-01 1.765568000000000026e+00 -3.710570000000000257e-01 1.133440999999999921e+00 2.872190999999999939e+00 8.062160000000000437e-01 -9.191869999999999763e-01 -4.670819999999999972e-01 -5.604510000000000325e-01 -1.026620000000000088e+00 7.672670000000000323e-01 1.506139999999999979e-01 -2.087960000000000094e-01 -3.618299999999999988e-02 -4.363670000000000049e-01 1.849429999999999963e-01 -5.557879999999999487e-01 -2.806969999999999743e-01 -6.536980000000000013e-01 3.154710000000000014e-01 -6.791800000000000614e-02 9.795179999999999998e-01 -3.367599999999999760e-02 -1.325169999999999959e-01 2.518630000000000035e-01 2.480120000000000102e-01 4.380600000000000049e-01 -2.239163000000000014e+00 -1.637802999999999898e+00 1.257771999999999890e+00 6.696199999999999375e-02 -9.190669999999999673e-01 -2.140279999999999960e-01 -1.180493999999999932e+00 -5.614019999999999566e-01 -6.307829999999999826e-01 7.956599999999999784e-02 -3.593560000000000088e-01 1.341963999999999935e+00 -4.509880000000000000e-01 -7.472630000000000106e-01 -7.539489999999999803e-01 7.486909999999999954e-01 3.666209999999999747e-01 5.570559999999999956e-01 6.023950000000000138e-01 1.263619999999999965e+00 -5.841760000000000286e-01 -3.032770000000000188e-01 5.149019999999999708e-01 -3.677400000000000113e-02 9.494999999999999968e-03 2.110889999999999989e-01 -1.461157999999999957e+00 -2.513870000000000271e-01 2.717200000000000171e-01 3.430610000000000048e-01 -2.440690000000000082e-01 -3.739689999999999959e-01 4.876929999999999876e-01 2.361219999999999986e-01 5.137819999999999609e-01 5.042300000000000254e-02 -2.107028000000000123e+00 -8.370410000000000350e-01 7.163990000000000080e-01 1.502304000000000084e+00 -4.813430000000000208e-01 1.725160000000000027e-01 -2.546410000000000062e-01 3.796109999999999762e-01 4.267299999999999982e-01 8.844100000000000572e-02 -6.904759999999999787e-01 -1.885860000000000036e-01 8.861499999999999932e-02 8.866239999999999677e-01 1.011128999999999944e+00 -3.110390000000000099e-01 1.122071000000000041e+00 5.976900000000000546e-01 6.623459999999999903e-01 -2.932370000000000254e-01 1.909319999999999906e-01 -1.058735999999999899e+00 -6.162279999999999980e-01 1.653931999999999958e+00 8.973000000000000420e-02 6.528499999999999581e-02 1.519999999999999997e-02 -1.203586000000000045e+00 1.229539999999999939e-01 1.169229999999999992e+00
-4.495574000000000403e+00 -1.513446000000000069e+00 1.653559999999999919e+00 -3.205579000000000178e+00 -6.814440000000000497e-01 3.005055000000000032e+00 4.189609999999999723e-01 3.583319999999999839e-01 2.446003999999999845e+00 2.940042000000000044e+00 -1.706463999999999981e+00 2.723676000000000208e+00 -1.659650000000000070e+00 2.923102000000000089e+00 -2.051950999999999858e+00 8.500269999999999770e-01 2.954860000000000264e-01 7.812879999999999825e-01 1.280240999999999962e+00 -1.582179999999999975e-01 -2.102517999999999887e+00 7.699890000000000345e-01 -1.424330000000000040e-01 -9.276229999999999754e-01 1.493309999999999915e-01 7.253920000000000368e-01 2.128611999999999949e+00 6.526619999999999644e-01 -2.878515999999999853e+00 1.591869999999999896e+00 1.123275999999999941e+00 1.382080999999999893e+00 1.278120000000000089e-01 3.961075999999999819e+00 -3.682529999999999970e-01 -5.725329999999999586e-01 -7.579519999999999591e-01 -1.688169000000000031e+00 -8.509010000000000185e-01 -2.201230000000000131e-01 -2.733349999999999946e-01 2.164341999999999988e+00 -1.984960000000000058e-01 -1.243983000000000061e+00 6.849399999999999933e-02 8.258860000000000090e-01 -6.362900000000000500e-02 -2.206490000000000062e+00 -7.254399999999999737e-01 -3.100121999999999822e+00 1.395664000000000016e+00 6.512400000000000411e-01 -2.732788999999999913e+00 2.296056999999999793e+00 -3.068712000000000106e+00 -2.916916000000000064e+00 -3.554660000000000153e+00 -7.082340000000000302e-01 1.855660000000000087e+00 -9.021580000000000155e-01 3.369079999999999853e-01 1.393934999999999924e+00 -4.807310000000000194e-01 3.221941999999999862e+00 -2.029330999999999996e+00 -1.896500999999999992e+00 1.281306999999999974e+00 1.755410000000000026e-01 -7.417420000000000124e-01 2.729223999999999872e+00 -1.010239000000000109e+00 1.789706000000000019e+00 3.785279999999999756e-01 -1.438412999999999942e+00 -2.975144999999999929e+00 -8.838000000000000023e-02 6.991290000000000004e-01 -3.657362000000000002e+00 -3.429364000000000079e+00 2.633785000000000043e+00 6.029899999999999843e-02 -2.307606999999999964e+00 5.509789999999999965e-01 -3.940649999999999986e-01 1.448239999999999972e+00 2.401590000000000114e-01 -4.694909999999999917e-01 -1.471867000000000036e+00 1.538040000000000074e+00 7.691179999999999684e-01 -2.495464999999999822e+00 -1.690696999999999894e+00 2.734770000000000145e+00 1.920600000000000085e+00 -2.751637000000000111e+00 1.681489000000000011e+00 1.609647999999999968e+00 3.148887999999999909e+00 -3.562450000000000117e+00 -7.227310000000000123e-01 4.413360000000000061e-01 2.059999999999999928e-04 -2.198630000000000029e-01 7.471569999999999601e-01 7.351330000000000364e-01 9.037079999999999558e-01 -2.324745000000000061e+00 1.047741000000000033e+00 1.376541999999999932e+00 -1.379477000000000064e+00 -7.219160000000000021e-01 6.182419999999999582e-01 1.226574000000000053e+00 1.305080999999999936e+00 -1.016510000000000025e+00 -1.280397000000000007e+00 4.706500000000000267e-02 -1.330918000000000045e+00 -8.979800000000000282e-02 6.832240000000000535e-01 1.639259000000000022e+00 -1.881069000000000102e+00 2.739565999999999946e+00 -6.649159999999999515e-01 -1.454220999999999986e+00 -3.298801000000000094e+00 -2.643778999999999879e+00 -1.826392999999999933e+00 5.080350000000000144e-01 7.605659999999999643e-01 -9.404169999999999474e-01 4.248939999999999939e-01 -1.588478999999999974e+00 3.096802999999999972e+00 3.036353000000000080e+00 -1.061339999999999950e+00 1.390867999999999993e+00 2.635562000000000182e+00 1.582885000000000097e+00 -1.854470999999999981e+00 -1.152625000000000011e+00 -3.744739999999999736e-01 1.163637999999999950e+00 -1.804559999999999942e+00 2.935249999999999804e-01 5.307290000000000063e-01 -3.375549999999999939e-01 -5.167070000000000274e-01 4.381091999999999764e+00 6.042250000000000121e-01 8.071989999999999998e-01 -2.134119999999999906e-01 -5.271919999999999940e-01 -7.154110000000000191e-01 -3.769299999999999873e-01 -9.466069999999999762e-01 -5.704019999999999646e-01 1.008345000000000047e+00 4.194789999999999908e-01 -6.318259999999999987e-01 9.715580000000000327e-01 -5.024939999999999962e-01 4.697479999999999989e-01 2.713903999999999872e+00 2.084337000000000106e+00 -2.441247000000000167e+00 -1.615385999999999989e+00 6.343590000000000062e-01 -1.005277999999999894e+00 8.842339999999999645e-01 -1.360109999999999930e-01 -1.109342000000000050e+00 6.922730000000000272e-01 2.425059999999999993e-01 -5.944949999999999957e-01 -4.263000000000000296e-03 -7.060469999999999802e-01 2.357273000000000174e+00 2.663905000000000189e+00 4.371909999999999963e-01 -9.031799999999999828e-01 1.559079999999999910e-01 5.652340000000000142e-01 -7.483440000000000092e-01 -1.522771000000000097e+00 -1.192840000000000011e-01 8.922870000000000523e-01 -3.365380000000000038e-01 -2.945375999999999994e+00 -2.611126000000000058e+00 -9.404999999999999472e-02 -2.843930000000000069e-01 3.321500000000000147e-02 1.014251000000000014e+00 -1.287239999999999940e+00 1.488950999999999913e+00 -1.046370999999999940e+00 -1.595370000000000121e-01 2.576089999999999769e-01 -1.766156000000000059e+00 -4.091659999999999742e-01 -4.173560000000000048e-01 2.344520999999999855e+00 2.745493999999999879e+00 1.303379999999999983e+00 -6.373360000000000136e-01 -5.670269999999999477e-01 1.970453000000000010e+00 -3.258240000000000025e-01 -7.951740000000000475e-01 1.784008999999999956e+00 2.110357000000000038e+00 7.489710000000000534e-01 2.084070000000000089e-01 4.400220000000000242e-01 -5.169300000000000006e-01 2.193646999999999903e+00 -1.484161000000000064e+00 -5.129289999999999683e-01 -1.583779999999999910e-01 -2.283439999999999914e-01 -3.901407999999999987e+00 -2.302420000000000022e-01 1.504389999999999894e-01 -1.251725999999999894e+00 -4.561499999999999999e-01 -3.039749999999999952e-01 7.959490000000000176e-01 2.848276999999999948e+00 2.881828000000000056e+00 -1.616872000000000087e+00 9.213409999999999656e-01 1.335300000000000098e-01 -7.676960000000000450e-01 -1.781787000000000010e+00 2.350530000000000119e-01 -2.392441999999999958e+00 2.901710000000000123e-01 6.867659999999999876e-01 -5.011769999999999836e-01 2.390836000000000183e+00 1.598524999999999974e+00 -8.521140000000000381e-01 -3.064029999999999809e-01 -2.821598999999999968e+00 2.714103999999999850e+00 -4.413579999999999726e-01 -5.727689999999999726e-01 -2.433109999999999995e-01 -3.258745999999999921e+00 -2.491760000000000086e-01 3.946076000000000139e+00 2.482343999999999884e+00 -2.589290999999999787e+00 5.286650000000000515e-01 -2.754827000000000137e+00 9.140909999999999869e-01 1.318321000000000076e+00 1.511185999999999918e+00 1.142168999999999990e+00 -1.767192000000000096e+00 2.577102000000000004e+00 -2.919120000000000048e-01 -1.540980000000000127e-01 -1.634994999999999976e+00 1.927413000000000043e+00 -8.941170000000000506e-01 -1.154768000000000017e+00 1.602800000000000058e-01 7.680900000000000505e-01 7.671799999999999731e-01 1.274922000000000111e+00 2.206522000000000094e+00 -2.380644999999999900e+00 8.962849999999999984e-01 -1.920859000000000094e+00
5.682340000000000169e-01 -2.208760999999999974e+00 1.288983999999999908e+00 2.698233999999999799e+00 -6.574619999999999909e-01 -4.633700000000000041e-01 8.552990000000000315e-01 -6.057853999999999850e+00 -1.161323000000000105e+00 -1.105054999999999898e+00 1.394095000000000084e+00 2.153265000000000207e+00 -1.068715000000000082e+00 -1.078305000000000069e+00 -1.679341999999999890e+00 -1.861798000000000064e+00 2.464719999999999966e-01 6.632190000000000030e-01 9.815960000000000241e-01 8.091230000000000366e-01 -1.381037999999999988e+00 -2.975559999999999872e-01 9.059749999999999748e-01 4.309299999999999797e-01 2.403223000000000109e+00 -1.575000000000000011e-01 -1.601231000000000071e+00 5.518699999999999717e-01 2.776859999999999884e-01 1.552966999999999986e+00 -6.749789999999999957e-01 3.320100000000000134e-02 -8.658029999999999893e-01 -2.012029999999999930e-01 -1.158079999999999943e-01 1.081868999999999970e+00 -3.048786999999999914e+00 -5.541700000000000098e-02 -2.854967999999999950e+00 -1.172698000000000018e+00 2.242897999999999836e+00 1.955481000000000025e+00 -5.828609999999999625e-01 1.292766000000000082e+00 5.943789999999999907e-01 -7.844640000000000502e-01 2.953552999999999873e+00 -6.407180000000000097e-01 -7.666939999999999866e-01 -4.243000000000000244e-03 1.562481000000000009e+00 1.960793000000000008e+00 2.458279999999999910e-01 -1.779972000000000110e+00 7.597660000000000524e-01 -2.479320000000000135e-01 -1.064691000000000054e+00 1.483095999999999970e+00 2.906509999999999927e+00 3.598200000000000010e-02 -4.014010000000000078e-01 2.398569999999999869e-01 8.636449999999999960e-01 1.484090000000000131e-01 -4.056989999999999763e-01 -1.128324000000000105e+00 -3.932889999999999997e-01 -6.734700000000000408e-02 4.094050000000000189e-01 -2.985132000000000119e+00 6.220160000000000133e-01 1.363523999999999958e+00 3.316206999999999905e+00 3.473352000000000217e+00 -2.381790000000000018e-01 1.616212999999999900e+00 2.509170000000000122e+00 -6.082800000000000429e-01 -1.512996999999999925e+00 -1.734402999999999917e+00 -8.055579999999999963e-01 -3.903218999999999994e+00 1.684039999999999981e-01 -2.084029000000000131e+00 1.450074000000000085e+00 6.457999999999999852e-02 -5.123980000000000201e-01 1.061249999999999971e-01 -5.059550000000000436e-01 2.191009999999999902e+00 -1.507131999999999916e+00 9.996159999999999490e-01 -8.002890000000000281e-01 2.529379999999999962e-01 4.421129999999999782e-01 -2.651399999999999937e-02 1.619351999999999903e+00 3.437536000000000147e+00 8.778679999999999817e-01 7.396040000000000392e-01 6.233199999999999852e-02 -1.914260000000000128e-01 -9.614099999999999868e-01 4.892790000000000195e-01 3.995020000000000238e-01 1.733935000000000004e+00 3.458100000000000063e-01 3.956399999999999917e-01 -1.049498999999999960e+00 -7.131899999999999906e-01 7.898960000000000425e-01 2.413289999999999880e-01 -1.081968999999999959e+00 1.679195999999999911e+00 -4.987908000000000008e+00 1.756968000000000085e+00 1.520949000000000106e+00 -6.835029999999999717e-01 7.601790000000000491e-01 -3.252904000000000018e+00 1.190404999999999935e+00 -1.105545000000000000e+00 -2.018929999999999891e-01 -4.263680000000000248e-01 1.155950999999999951e+00 -8.174700000000000299e-01 2.825639999999999818e-01 -1.018081000000000014e+00 -3.256709999999999883e-01 1.576772999999999980e+00 -3.015845000000000109e+00 2.111582999999999988e+00 7.305999999999999994e-03 -9.081989999999999785e-01 9.435759999999999703e-01 1.749759999999999982e+00 1.693068999999999935e+00 -1.645270999999999928e+00 8.693130000000000024e-01 3.127731999999999957e+00 1.905513999999999930e+00 -6.133079999999999643e-01 5.108999999999999826e-03 1.343658000000000019e+00 8.081519999999999815e-01 -3.052826000000000040e+00 -9.623070000000000235e-01 1.467017000000000015e+00 1.184863999999999917e+00 -1.367925999999999975e+00 -2.034950000000000092e-01 3.312109999999999776e-01 -4.583099999999999674e-02 1.060400000000000058e-02 -2.557814000000000032e+00 5.644510000000000360e-01 4.840700000000000003e-01 1.368860000000000077e-01 1.959690000000000043e-01 -1.058859999999999912e+00 -1.220332999999999890e+00 1.401882000000000073e+00 2.196019999999999917e-01 -1.165660000000000029e-01 -2.024420000000000108e-01 6.868699999999999806e-01 -8.525270000000000348e-01 -2.057107999999999937e+00 -6.012699999999999712e-01 5.557760000000000478e-01 2.604480000000000128e-01 -8.307959999999999789e-01 1.885196000000000094e+00 -1.278572000000000042e+00 -8.392680000000000140e-01 5.886379999999999946e-01 -8.295580000000000176e-01 -8.276999999999999635e-03 -5.295130000000000114e-01 2.033050000000000135e-01 -1.533360000000000001e-01 2.451957999999999860e+00 -1.231470000000000065e-01 1.025376000000000065e+00 -5.541859999999999564e-01 4.207299999999999929e-02 4.229209999999999914e-01 -4.871659999999999879e-01 1.330230000000000024e+00 -1.684150999999999954e+00 -2.424155999999999977e+00 -1.550000000000000000e-04 -2.298772000000000038e+00 2.182663999999999938e+00 -4.270999999999999797e-02 -4.168370000000000131e-01 -1.149745999999999935e+00 -5.758830000000000338e-01 7.749310000000000365e-01 -8.609400000000000386e-02 2.497010000000000063e-01 2.513996000000000119e+00 -2.644045999999999896e+00 1.521463000000000010e+00 -7.150849999999999707e-01 1.892887999999999904e+00 3.901029999999999776e-01 -1.250699999999999867e-01 -1.054049999999999931e+00 1.563776000000000055e+00 -1.053700000000000053e-01 1.655109999999999915e-01 1.935855000000000103e+00 -4.427209999999999757e-01 8.382199999999999374e-02 4.567500000000000032e-02 -3.740410000000000124e-01 -2.201079999999999981e-01 7.247599999999999876e-02 -1.045600000000000002e-01 -3.587699999999999917e-02 -2.684670000000000112e-01 2.204817999999999945e+00 1.277900999999999954e+00 2.619099999999999762e-01 -1.698530000000000040e-01 -1.046615999999999991e+00 7.905360000000000165e-01 -1.879979999999999984e-01 5.735120000000000218e-01 4.532479999999999842e-01 -4.982610000000000094e-01 -1.687700000000000033e-01 -7.211950000000000305e-01 -4.637999999999999762e-02 1.944393999999999956e+00 -1.017006000000000077e+00 5.288659999999999473e-01 -1.036906000000000105e+00 -2.575661999999999896e+00 5.762450000000000072e-01 -4.064860000000000140e-01 -2.073570000000000135e-01 1.235692000000000013e+00 -1.849906000000000050e+00 -1.339858999999999911e+00 3.351589999999999847e-01 -1.275543000000000093e+00 -1.090041999999999955e+00 -2.429428000000000143e+00 7.462569999999999482e-01 -6.954899999999999971e-02 1.250205999999999928e+00 -1.210919999999999996e+00 2.036001999999999867e+00 8.214350000000000263e-01 -9.721710000000000074e-01 -7.377089999999999481e-01 1.864921999999999969e+00 -1.578821000000000030e+00 -3.382187000000000054e+00 -3.117738000000000120e+00 -2.474366999999999983e+00 -4.312750000000000195e-01 -1.234369999999999967e+00 -3.843300000000000050e-01 2.531493000000000215e+00 -8.807469999999999466e-01 5.147559999999999913e-01 1.036580999999999975e+00 1.241001999999999938e+00 -1.617509000000000086e+00 1.202215000000000034e+00 1.882355000000000000e+00 9.694559999999999844e-01 -7.473039999999999683e-01