1.554899999999999893e-01 2.349159999999999915e+00 2.840489999999999959e+00 2.474500000000000033e-01 2.881460000000000132e+00 7.836710000000000065e+00 1.067000000000000066e-02 8.451499999999999346e+00 2.541020000000000056e+00 1.160400000000000043e-01 7.864130000000000287e+00 7.790530000000000399e+00 4.957040000000000113e+00 2.749909999999999854e+00 2.284130000000000216e+00 5.416419999999999568e+00 2.639520000000000088e+00 7.885799999999999699e+00 5.416850000000000165e+00 8.083940000000000126e+00 2.210780000000000189e+00 4.951959999999999695e+00 7.413030000000000008e+00 7.209459999999999980e+00 2.781320000000000014e+00 5.377089999999999925e+00 1.984620000000000051e+00 2.654430000000000067e+00 5.006170000000000009e+00 7.764969999999999928e+00 2.258519999999999861e+00 1.077392000000000039e+01 2.480239999999999778e+00 2.690710000000000157e+00 1.040052000000000021e+01 7.892470000000000319e+00 7.894730000000000025e+00 5.273869999999999614e+00 2.679510000000000058e+00 7.975259999999999572e+00 5.232230000000000381e+00 7.829159999999999897e+00 7.874380000000000379e+00 1.047052000000000049e+01 2.624280000000000168e+00 7.757579999999999920e+00 1.005349000000000004e+01 7.413429999999999964e+00 2.699390000000000178e+00 2.376009999999999955e+00 5.388169999999999682e+00 2.915700000000000180e+00 2.467330000000000023e+00 1.029705000000000048e+01 2.680660000000000043e+00 7.717200000000000060e+00 4.921079999999999899e+00 3.142560000000000020e+00 8.032420000000000115e+00 1.037545000000000073e+01 7.945350000000000357e+00 2.817340000000000177e+00 5.389940000000000175e+00 8.012829999999999231e+00 2.512169999999999792e+00 8.955000000000000460e-02 7.694239999999999746e+00 7.294520000000000337e+00 5.140200000000000102e+00 8.096379999999999910e+00 7.825560000000000294e+00 1.026004999999999967e+01 3.021300000000000097e-01 5.428600000000000314e+00 4.959340000000000082e+00 1.024150000000000027e+01 5.503610000000000113e+00 3.507799999999999807e-01 1.037599999999999945e+01 4.932000000000000273e-02 5.286299999999999777e+00 1.022380000000000067e+01 1.076511999999999958e+01 1.027594999999999992e+01 5.127209999999999823e+00 5.042460000000000164e+00 4.975010000000000154e+00 5.397820000000000285e+00 5.045130000000000337e+00 1.006774000000000058e+01 4.951839999999999797e+00 1.007300000000000001e-01 5.012430000000000163e+00 5.434079999999999799e+00 -9.950000000000000511e-03 1.013843999999999923e+01 4.261569999999999858e+00 4.607490000000000308e+00 3.118219999999999992e+00 4.197849999999999859e+00 4.085530000000000328e+00 8.730359999999999232e+00 3.538300000000000001e+00 9.904790000000000205e+00 4.385779999999999568e+00 3.820339999999999847e+00 9.945190000000000197e+00 9.383369999999999322e+00 9.105409999999999116e+00 4.269569999999999865e+00 4.425410000000000288e+00 9.783459999999999823e+00 4.366760000000000197e+00 9.376480000000000814e+00 9.431910000000000238e+00 9.592959999999999710e+00 3.692390000000000061e+00 9.186220000000000496e+00 9.292490000000000805e+00 9.129609999999999559e+00 3.909299999999999997e+00 1.283630000000000049e+00 9.485500000000000043e-01 3.617539999999999978e+00 7.512600000000000389e-01 6.418099999999999916e+00 4.000930000000000319e+00 6.769000000000000128e+00 1.100479999999999903e+00 3.648610000000000131e+00 6.083070000000000199e+00 6.213530000000000442e+00 9.254989999999999384e+00 1.123080000000000078e+00 1.289269999999999916e+00 8.521010000000000417e+00 6.242499999999999716e-01 6.356559999999999988e+00 9.096429999999999794e+00 6.751400000000000290e+00 1.552319999999999922e+00 8.733280000000000598e+00 6.270649999999999835e+00 6.385290000000000354e+00 4.164729999999999599e+00 1.834170000000000078e+00 3.753629999999999800e+00 4.410590000000000011e+00 1.429540000000000033e+00 9.065540000000000376e+00 4.784169999999999590e+00 7.291769999999999641e+00 3.829089999999999883e+00 4.108319999999999972e+00 6.996520000000000294e+00 9.109619999999999607e+00 8.980689999999999173e+00 1.283500000000000085e+00 3.916609999999999925e+00 9.656950000000000145e+00 1.550149999999999917e+00 9.167450000000000543e+00 9.300679999999999836e+00 6.900190000000000268e+00 4.051440000000000374e+00 9.115709999999999980e+00 6.842480000000000118e+00 9.033530000000000726e+00 3.806179999999999897e+00 3.731590000000000185e+00 7.897800000000000376e-01 3.910359999999999836e+00 3.517809999999999881e+00 6.284209999999999852e+00 3.804809999999999803e+00 9.590769999999999129e+00 1.700639999999999930e+00 3.360370000000000079e+00 8.392129999999999868e+00 6.859899999999999665e+00 8.812250000000000583e+00 3.854029999999999845e+00 1.623459999999999903e+00 8.999209999999999710e+00 3.431169999999999831e+00 7.050159999999999982e+00 9.159470000000000667e+00 9.247690000000000410e+00 9.671899999999999942e-01 8.539070000000000604e+00 8.480829999999999202e+00 6.493000000000000327e+00 1.098440000000000083e+00 8.301600000000000090e-01 3.948989999999999778e+00 1.564189999999999969e+00 5.081400000000000361e-01 9.207700000000000884e+00 1.623969999999999914e+00 6.146950000000000358e+00 3.474749999999999783e+00 1.398970000000000047e+00 6.124139999999999695e+00 8.844189999999999330e+00 6.369419999999999860e+00 2.250300000000000078e-01 3.479299999999999837e+00 6.945520000000000138e+00 9.007199999999999651e-01 8.959899999999999309e+00 6.739200000000000301e+00 6.012170000000000236e+00 4.240829999999999878e+00 6.577729999999999855e+00 6.260930000000000106e+00 8.757329999999999615e+00 1.030000000000000027e+00 4.420639999999999681e+00 1.435449999999999893e+00 1.169510000000000050e+00 4.285099999999999909e+00 6.450619999999999798e+00 7.856899999999999995e-01 9.956099999999999284e+00 1.514850000000000030e+00 9.424500000000000099e-01 9.680529999999999191e+00 7.095720000000000027e+00 6.641869999999999941e+00 5.957910000000000039e+00 1.262729999999999908e+00 6.255279999999999951e+00 4.339809999999999945e+00 6.691279999999999895e+00 6.539049999999999585e+00 9.142250000000000654e+00 1.016780000000000017e+00 5.937750000000000306e+00 1.004172999999999938e+01 6.347199999999999953e+00 1.722059999999999924e+00 3.243119999999999781e+00 3.973700000000000010e+00 1.966839999999999922e+00 3.369769999999999932e+00 8.798249999999999460e+00 1.560240000000000071e+00 8.859379999999999811e+00 3.690329999999999888e+00 1.635010000000000074e+00 8.652570000000000761e+00 9.023320000000000007e+00 6.649890000000000079e+00 3.914019999999999833e+00 3.573960000000000026e+00 6.596029999999999838e+00 3.854150000000000187e+00 9.208299999999999486e+00 6.942129999999999690e+00 8.689909999999999357e+00 3.328870000000000218e+00 6.753619999999999735e+00 8.905329999999999302e+00 8.690870000000000317e+00 1.690399999999999903e+00 1.928180000000000005e+00 1.632489999999999997e+00 6.726699999999999902e-01 1.746010000000000062e+00 6.479540000000000077e+00 1.668639999999999901e+00 6.824060000000000237e+00 1.053290000000000060e+00 8.180899999999999839e-01 7.159889999999999866e+00 5.853939999999999699e+00 6.544699999999999740e+00 1.902020000000000044e+00 1.081839999999999913e+00 6.084080000000000155e+00 1.991179999999999950e+00 5.712819999999999787e+00
5.634799999999999809e-01 2.649119999999999919e+00 2.303370000000000140e+00 3.377000000000000141e-02 2.484589999999999854e+00 7.928759999999999586e+00 2.772999999999999909e-01 7.741699999999999804e+00 2.479800000000000004e+00 1.028120000000000012e+01 7.846189999999999998e+00 7.636580000000000368e+00 5.475430000000000241e+00 3.070530000000000204e+00 2.472059999999999924e+00 5.335829999999999629e+00 2.895210000000000061e+00 7.921570000000000000e+00 5.256330000000000169e+00 8.113210000000000477e+00 2.249140000000000139e+00 5.322759999999999714e+00 8.003899999999999793e+00 7.477280000000000371e+00 2.959970000000000212e+00 5.588549999999999685e+00 2.385269999999999779e+00 2.426829999999999821e+00 5.594439999999999635e+00 7.556470000000000020e+00 2.906190000000000051e+00 1.084854999999999947e+01 2.743910000000000071e+00 2.681090000000000195e+00 1.801399999999999946e-01 7.556409999999999627e+00 8.246169999999999334e+00 4.903299999999999770e+00 2.326449999999999907e+00 7.894110000000000404e+00 5.477750000000000341e+00 7.646069999999999922e+00 8.036530000000000840e+00 1.053664999999999985e+01 2.383210000000000051e+00 7.677469999999999573e+00 9.629000000000000059e-02 7.645900000000000141e+00 2.768879999999999786e+00 2.944259999999999877e+00 5.075879999999999725e+00 2.724880000000000191e+00 2.175489999999999924e+00 1.028316000000000052e+01 2.499730000000000008e+00 8.218819999999999126e+00 4.904530000000000278e+00 2.793309999999999960e+00 8.391569999999999752e+00 1.014306999999999981e+01 7.701959999999999695e+00 2.149109999999999854e+00 4.868100000000000094e+00 8.065229999999999677e+00 2.136039999999999939e+00 6.554000000000000103e-02 8.206989999999999341e+00 7.981189999999999785e+00 5.069869999999999877e+00 7.972909999999999719e+00 7.616970000000000240e+00 1.204999999999999960e-01 3.250000000000000111e-02 4.931560000000000166e+00 5.228600000000000136e+00 3.825899999999999856e-01 5.297589999999999577e+00 1.018985999999999947e+01 1.036490000000000045e+01 1.052345000000000041e+01 5.172200000000000131e+00 1.040610000000000035e+01 1.014152999999999949e+01 3.020200000000000107e-01 5.198319999999999830e+00 5.284200000000000230e+00 5.122329999999999828e+00 5.342929999999999957e+00 5.466910000000000380e+00 1.014655999999999914e+01 5.022809999999999775e+00 1.034914999999999985e+01 5.328890000000000349e+00 5.418540000000000134e+00 1.073794999999999966e+01 1.025346000000000046e+01 4.026440000000000019e+00 4.088140000000000107e+00 3.805009999999999781e+00 4.022999999999999687e+00 3.435319999999999929e+00 9.436429999999999652e+00 4.156909999999999883e+00 9.377760000000000318e+00 3.639949999999999797e+00 4.008060000000000400e+00 8.723850000000000549e+00 8.621959999999999624e+00 9.121199999999999974e+00 3.535089999999999844e+00 3.672639999999999905e+00 9.332629999999999981e+00 3.248079999999999856e+00 9.294930000000000803e+00 9.561199999999999477e+00 9.000140000000000029e+00 3.943529999999999980e+00 9.292030000000000456e+00 8.659219999999999473e+00 9.393539999999999779e+00 4.061880000000000379e+00 9.418870000000000076e+00 9.194400000000000350e-01 3.741480000000000139e+00 1.757020000000000026e+00 6.751820000000000377e+00 1.699140000000000095e+00 6.320899999999999963e+00 1.054489999999999927e+00 3.396570000000000089e+00 4.445500000000000007e+00 6.454360000000000319e+00 9.509560000000000457e+00 1.166719999999999979e+00 1.443500000000000005e+00 8.703649999999999665e+00 1.605259999999999909e+00 6.492759999999999643e+00 4.215989999999999682e+00 9.448999999999999622e-01 4.086800000000000210e+00 4.071799999999999642e+00 8.619099999999999540e-01 9.072729999999999961e+00 3.928529999999999855e+00 6.805460000000000065e+00 6.195199999999999818e+00 3.858270000000000088e+00 6.158929999999999794e+00 8.875679999999999126e+00 8.706089999999999662e+00 5.350800000000000001e-01 3.963769999999999794e+00 9.044739999999999114e+00 5.962300000000000377e-01 9.188539999999999708e+00 9.151270000000000238e+00 6.443050000000000388e+00 3.810690000000000133e+00 9.336940000000000239e+00 6.319539999999999935e+00 9.091670000000000584e+00 4.685520000000000351e+00 4.736699999999999910e+00 1.494930000000000092e+00 1.072000000000000064e+00 3.477479999999999905e+00 6.043779999999999930e+00 4.224540000000000184e+00 6.964850000000000207e+00 9.196299999999999475e-01 3.515499999999999847e+00 9.797449999999999548e+00 6.189169999999999838e+00 9.796680000000000277e+00 4.279709999999999681e+00 1.496410000000000018e+00 8.811180000000000234e+00 6.968729999999999869e+00 6.638749999999999929e+00 6.489559999999999995e+00 8.746520000000000294e+00 6.457500000000000462e-01 8.830180000000000362e+00 9.638690000000000424e+00 6.459310000000000329e+00 1.816990000000000105e+00 1.488790000000000058e+00 3.621280000000000054e+00 1.566940000000000000e+00 1.614719999999999933e+00 8.835639999999999716e+00 1.663880000000000026e+00 6.741740000000000066e+00 3.627720000000000056e+00 1.300920000000000076e+00 6.917729999999999713e+00 8.818419999999999703e+00 6.829970000000000319e+00 5.114800000000000457e-01 8.318699999999999983e-01 6.869780000000000442e+00 1.709850000000000092e+00 8.739010000000000389e+00 4.506899999999999906e+00 6.640150000000000219e+00 3.472970000000000113e+00 6.534440000000000026e+00 6.997010000000000396e+00 8.871980000000000643e+00 1.726650000000000018e+00 3.741470000000000073e+00 9.017899999999999805e-01 9.394190000000000040e+00 4.616719999999999935e+00 6.953789999999999694e+00 1.548890000000000100e+00 9.771340000000000359e+00 3.835150000000000059e+00 1.600670000000000037e+00 9.948769999999999669e+00 9.070759999999999934e+00 6.933939999999999770e+00 3.278979999999999784e+00 1.151739999999999986e+00 6.739740000000000286e+00 3.561960000000000015e+00 6.631689999999999863e+00 7.214909999999999712e+00 8.474230000000000373e+00 3.297229999999999883e+00 6.297780000000000378e+00 8.898419999999999774e+00 6.103439999999999976e+00 1.416039999999999965e+00 4.248639999999999972e+00 3.687920000000000087e+00 1.244010000000000060e+00 4.239559999999999995e+00 8.822900000000000631e+00 1.299590000000000023e+00 8.925639999999999574e+00 6.221079999999999721e+00 1.517090000000000050e+00 8.800840000000000884e+00 1.259090000000000042e+00 6.432369999999999699e+00 3.868250000000000188e+00 3.865340000000000220e+00 6.337769999999999904e+00 4.321360000000000312e+00 8.846590000000000842e+00 6.712489999999999846e+00 1.244390000000000107e+00 2.968020000000000103e+00 6.128549999999999720e+00 9.943400000000000460e+00 8.557930000000000703e+00 1.624770000000000048e+00 6.897900000000000142e-01 9.812199999999999811e-01 8.330999999999999517e-01 8.172000000000000375e-01 6.500600000000000378e+00 9.381370000000000431e+00 6.648039999999999949e+00 1.415100000000000025e+00 1.266999999999999904e+00 6.424549999999999983e+00 6.075910000000000366e+00 3.982439999999999980e+00 1.531560000000000032e+00 1.639129999999999976e+00 6.315719999999999779e+00 7.385099999999999998e-01 6.250040000000000262e+00 7.079900000000000304e+00 5.884240000000000137e+00 8.727000000000000313e-01 6.742490000000000094e+00 6.088070000000000093e+00 5.820319999999999716e+00
1.020913000000000004e+01 2.573069999999999968e+00 2.323789999999999800e+00 6.314999999999999780e-02 2.635359999999999925e+00 7.560220000000000162e+00 1.024033000000000015e+01 7.951220000000000176e+00 2.368009999999999948e+00 1.880799999999999972e-01 8.051989999999999981e+00 7.304549999999999876e+00 4.952820000000000000e+00 2.886769999999999836e+00 2.468620000000000037e+00 5.090069999999999872e+00 2.844160000000000021e+00 7.686379999999999768e+00 5.161319999999999908e+00 7.951399999999999579e+00 2.353040000000000020e+00 5.182339999999999947e+00 8.103749999999999787e+00 7.411100000000000243e+00 2.706379999999999786e+00 4.875989999999999824e+00 2.323989999999999778e+00 2.712400000000000144e+00 4.908960000000000434e+00 7.502600000000000158e+00 2.594920000000000115e+00 1.012390000000000079e+01 2.518810000000000215e+00 2.720120000000000093e+00 1.028800000000000026e+01 7.418739999999999668e+00 7.604720000000000368e+00 5.018279999999999852e+00 2.569350000000000023e+00 7.785149999999999793e+00 4.962679999999999758e+00 7.610149999999999970e+00 7.726899999999999658e+00 1.026179999999999914e+01 2.408150000000000013e+00 7.760119999999999685e+00 1.026730000000000054e+01 7.627810000000000201e+00 2.625109999999999832e+00 2.178640000000000132e+00 5.007290000000000241e+00 2.437279999999999891e+00 2.069879999999999942e+00 1.332000000000000024e-02 2.598570000000000046e+00 7.519490000000000229e+00 5.081610000000000404e+00 2.758739999999999970e+00 7.650839999999999641e+00 9.930120000000000502e+00 7.618629999999999569e+00 2.345479999999999787e+00 5.087250000000000050e+00 7.587299999999999933e+00 2.139299999999999979e+00 8.036999999999999700e-02 7.689339999999999620e+00 7.664119999999999600e+00 5.178510000000000169e+00 7.790670000000000428e+00 7.722710000000000186e+00 1.012552999999999948e+01 1.025087000000000081e+01 5.178650000000000198e+00 5.062800000000000189e+00 1.016243000000000052e+01 5.456550000000000011e+00 3.017999999999999849e-02 1.009492999999999974e+01 9.972999999999999921e-02 5.189809999999999590e+00 1.016132999999999953e+01 1.059730000000000061e+01 1.012322999999999951e+01 5.261639999999999873e+00 5.442109999999999559e+00 5.112569999999999837e+00 5.302459999999999951e+00 5.477809999999999846e+00 8.401000000000000134e-02 5.231209999999999916e+00 1.552000000000000081e-02 4.972470000000000390e+00 4.957810000000000272e+00 1.061389999999999922e+01 1.073199999999999987e-01 4.188970000000000304e+00 4.399810000000000443e+00 3.664239999999999942e+00 4.224470000000000169e+00 4.669030000000000236e+00 8.724220000000000752e+00 4.363739999999999952e+00 9.826069999999999638e+00 3.286950000000000038e+00 4.367960000000000065e+00 9.674469999999999459e+00 8.472970000000000113e+00 9.426489999999999370e+00 4.093420000000000059e+00 3.413170000000000037e+00 9.714930000000000732e+00 4.520129999999999981e+00 8.379450000000000287e+00 9.447869999999999990e+00 9.678240000000000620e+00 3.322919999999999874e+00 9.565120000000000289e+00 9.765299999999999869e+00 8.500790000000000290e+00 3.497930000000000206e+00 8.384700000000000486e-01 1.031630000000000047e+00 3.827220000000000066e+00 9.122299999999999853e-01 6.275179999999999758e+00 4.050869999999999749e+00 6.391040000000000276e+00 1.419669999999999987e+00 3.889060000000000183e+00 6.323290000000000077e+00 6.254369999999999763e+00 8.694879999999999498e+00 1.071439999999999948e+00 1.450350000000000028e+00 8.796799999999999287e+00 1.032939999999999969e+00 6.532320000000000348e+00 8.730639999999999290e+00 6.330949999999999633e+00 1.431950000000000056e+00 8.850289999999999324e+00 6.471330000000000027e+00 6.449410000000000309e+00 4.357310000000000016e+00 1.740010000000000057e+00 4.192660000000000053e+00 4.334170000000000300e+00 1.589490000000000069e+00 9.036569999999999325e+00 4.335040000000000227e+00 6.931519999999999904e+00 3.872360000000000024e+00 4.499530000000000030e+00 7.113400000000000389e+00 9.031180000000000874e+00 9.368650000000000588e+00 1.591020000000000101e+00 4.033030000000000115e+00 9.464539999999999509e+00 1.818699999999999983e+00 9.402680000000000149e+00 9.279799999999999827e+00 7.247289999999999566e+00 4.117250000000000298e+00 9.603089999999999904e+00 7.184820000000000206e+00 9.269090000000000273e+00 3.684130000000000127e+00 3.562840000000000007e+00 1.040429999999999966e+00 3.927389999999999937e+00 3.652089999999999836e+00 6.281780000000000364e+00 3.677960000000000118e+00 9.039440000000000808e+00 7.631200000000000205e-01 3.769000000000000128e+00 8.986660000000000537e+00 5.973869999999999791e+00 8.744979999999999976e+00 3.718039999999999790e+00 9.648499999999999854e-01 9.043369999999999465e+00 3.711489999999999956e+00 6.209990000000000343e+00 8.980100000000000193e+00 8.955640000000000711e+00 1.037439999999999918e+00 9.033620000000000871e+00 9.140510000000000801e+00 6.226219999999999644e+00 1.863939999999999930e+00 7.007499999999999840e-01 3.982689999999999841e+00 1.621129999999999960e+00 6.194899999999999851e-01 9.102890000000000370e+00 1.785369999999999902e+00 5.947280000000000122e+00 3.878829999999999778e+00 2.101119999999999877e+00 6.306750000000000078e+00 8.661609999999999587e+00 6.888620000000000410e+00 8.191100000000000048e-01 3.956319999999999837e+00 6.926350000000000229e+00 4.015699999999999825e-01 9.273640000000000327e+00 6.989869999999999806e+00 5.950890000000000235e+00 4.390799999999999592e+00 7.145909999999999762e+00 5.871019999999999683e+00 9.371840000000000614e+00 1.151610000000000023e+00 4.007279999999999731e+00 9.449999999999999512e-01 1.165159999999999973e+00 4.020480000000000054e+00 6.168580000000000396e+00 1.166220000000000034e+00 9.501279999999999504e+00 1.156169999999999920e+00 1.339339999999999975e+00 9.404120000000000701e+00 6.065620000000000012e+00 6.225660000000000416e+00 3.992500000000000160e+00 1.127850000000000019e+00 6.298580000000000290e+00 3.916549999999999976e+00 6.270310000000000272e+00 6.241189999999999571e+00 9.132389999999999119e+00 1.087250000000000050e+00 6.519040000000000390e+00 9.253959999999999297e+00 6.196909999999999918e+00 2.042969999999999953e+00 3.160909999999999886e+00 3.286859999999999893e+00 1.805609999999999937e+00 3.267059999999999853e+00 8.492430000000000589e+00 1.797590000000000021e+00 8.587289999999999424e+00 3.456929999999999836e+00 1.773539999999999894e+00 8.681869999999999976e+00 8.604490000000000194e+00 6.760259999999999714e+00 3.340669999999999806e+00 3.478369999999999962e+00 6.944740000000000357e+00 3.301200000000000134e+00 8.641880000000000450e+00 6.834170000000000300e+00 8.608290000000000219e+00 3.461840000000000028e+00 6.805819999999999759e+00 8.727619999999999933e+00 8.470980000000000842e+00 1.077360000000000095e+00 1.247719999999999940e+00 1.340589999999999948e+00 1.302440000000000042e+00 1.513479999999999936e+00 6.379380000000000273e+00 1.365520000000000067e+00 6.601280000000000037e+00 9.685899999999999510e-01 1.114430000000000032e+00 6.637970000000000148e+00 6.206010000000000026e+00 6.106329999999999814e+00 1.392169999999999908e+00 1.425640000000000018e+00 6.336859999999999715e+00 1.159950000000000037e+00 6.261140000000000150e+00
1.022535000000000061e+01 2.590640000000000054e+00 2.363430000000000142e+00 7.255000000000000338e-02 2.847069999999999990e+00 7.770830000000000126e+00 5.346999999999999670e-02 8.334149999999999281e+00 2.543299999999999894e+00 3.028299999999999881e-01 8.121539999999999537e+00 7.911129999999999995e+00 5.544299999999999784e+00 2.700979999999999936e+00 2.656579999999999941e+00 5.163090000000000401e+00 2.860819999999999919e+00 7.467419999999999725e+00 5.322400000000000020e+00 8.389210000000000278e+00 2.663780000000000037e+00 5.650590000000000224e+00 8.018240000000000478e+00 7.750549999999999606e+00 2.520049999999999901e+00 4.980649999999999800e+00 2.443779999999999841e+00 2.565900000000000070e+00 4.945509999999999629e+00 7.603950000000000209e+00 2.619979999999999976e+00 1.059009000000000000e+01 2.558429999999999982e+00 2.797559999999999825e+00 1.037678999999999974e+01 7.705630000000000202e+00 7.870129999999999626e+00 5.036590000000000344e+00 2.565710000000000157e+00 7.772459999999999702e+00 5.078310000000000102e+00 7.334419999999999717e+00 7.858120000000000438e+00 1.048358999999999952e+01 2.641630000000000145e+00 7.777989999999999959e+00 1.027299000000000007e+01 7.593510000000000204e+00 2.462800000000000100e+00 2.310420000000000140e+00 5.095369999999999955e+00 2.721229999999999816e+00 2.294509999999999827e+00 1.033125000000000071e+01 2.673779999999999824e+00 7.858979999999999855e+00 5.092150000000000176e+00 2.694719999999999782e+00 7.588729999999999976e+00 1.199899999999999994e-01 7.699869999999999770e+00 2.413349999999999884e+00 5.048809999999999576e+00 8.053630000000000067e+00 2.198859999999999815e+00 1.006475999999999971e+01 8.095510000000000872e+00 7.597780000000000200e+00 4.912480000000000402e+00 7.864209999999999923e+00 7.624380000000000379e+00 5.081999999999999712e-02 2.995099999999999985e-01 5.135849999999999582e+00 5.059580000000000410e+00 1.028499999999999970e-01 5.493170000000000108e+00 8.976000000000000645e-02 1.030582000000000065e+01 1.455000000000000043e-02 5.093149999999999622e+00 2.101699999999999957e-01 1.077228999999999992e+01 1.019575000000000031e+01 5.092100000000000293e+00 5.645150000000000112e+00 4.924030000000000129e+00 5.340329999999999799e+00 5.527370000000000339e+00 1.015155000000000030e+01 5.208120000000000083e+00 1.472199999999999898e-01 4.952270000000000394e+00 5.411340000000000039e+00 4.093000000000000110e-02 1.021175000000000033e+01 3.911360000000000170e+00 4.529969999999999608e+00 3.815310000000000201e+00 4.170480000000000409e+00 4.262410000000000032e+00 8.946640000000000370e+00 4.209789999999999921e+00 9.936500000000000554e+00 3.746109999999999829e+00 4.460219999999999629e+00 9.826779999999999404e+00 8.709310000000000329e+00 9.022280000000000300e+00 4.097520000000000273e+00 3.938899999999999846e+00 9.696960000000000690e+00 4.374229999999999841e+00 8.877169999999999561e+00 9.376120000000000232e+00 9.540020000000000167e+00 3.860199999999999854e+00 9.487640000000000740e+00 9.900579999999999714e+00 8.696229999999999905e+00 3.608760000000000190e+00 5.385199999999999987e-01 9.175999999999999712e-01 3.528760000000000119e+00 5.089700000000000335e-01 6.130359999999999587e+00 3.818350000000000133e+00 6.147560000000000358e+00 1.038920000000000066e+00 3.727409999999999890e+00 5.982230000000000381e+00 6.334220000000000184e+00 8.595200000000000173e+00 5.093900000000000095e-01 8.722600000000000353e-01 8.758050000000000779e+00 8.021700000000000497e-01 6.141919999999999824e+00 3.991919999999999913e+00 1.559530000000000083e+00 3.532319999999999904e+00 4.176239999999999952e+00 1.793239999999999945e+00 8.843099999999999739e+00 4.419830000000000148e+00 7.403400000000000425e+00 4.019860000000000433e+00 4.075000000000000178e+00 7.193559999999999732e+00 9.075250000000000483e+00 9.075770000000000337e+00 1.360190000000000010e+00 3.528119999999999923e+00 9.666840000000000543e+00 1.793150000000000022e+00 9.239020000000000010e+00 9.029510000000000147e+00 5.964719999999999800e+00 5.951220000000000176e+00 9.504089999999999705e+00 7.064680000000000071e+00 9.189610000000000056e+00 3.492719999999999825e+00 3.443210000000000104e+00 1.401890000000000081e+00 3.630609999999999893e+00 3.220050000000000079e+00 6.449230000000000018e+00 3.482369999999999965e+00 8.834830000000000183e+00 1.497540000000000093e+00 3.550429999999999975e+00 8.722530000000000783e+00 6.506619999999999848e+00 8.813370000000000815e+00 3.476309999999999789e+00 1.261360000000000037e+00 8.795130000000000337e+00 3.493539999999999868e+00 6.580770000000000231e+00 8.676109999999999545e+00 8.780400000000000205e+00 1.623729999999999896e+00 8.873359999999999914e+00 8.651479999999999393e+00 6.785020000000000273e+00 1.330719999999999903e+00 8.910700000000000287e-01 3.794709999999999805e+00 1.823280000000000012e+00 6.960300000000000376e-01 9.144600000000000506e+00 1.670639999999999903e+00 6.124069999999999681e+00 4.170440000000000147e+00 1.730350000000000055e+00 6.224169999999999980e+00 9.200329999999999231e+00 6.633490000000000109e+00 1.119569999999999954e+00 3.592439999999999856e+00 6.888189999999999813e+00 8.305599999999999650e-01 8.919560000000000599e+00 6.948789999999999800e+00 6.716820000000000235e+00 3.617199999999999971e+00 6.534819999999999851e+00 6.321500000000000341e+00 8.789229999999999876e+00 1.020720000000000072e+00 4.030949999999999811e+00 1.263509999999999911e+00 1.330319999999999947e+00 4.116869999999999585e+00 6.425609999999999822e+00 9.960400000000000365e-01 9.398880000000000123e+00 1.157350000000000101e+00 8.955400000000000027e-01 9.929750000000000298e+00 6.760159999999999947e+00 6.119729999999999670e+00 4.549210000000000420e+00 1.659899999999999931e+00 6.211660000000000181e+00 4.399149999999999672e+00 6.401589999999999669e+00 5.921109999999999651e+00 1.000070999999999977e+01 1.468679999999999986e+00 6.200000000000000178e+00 9.621750000000000469e+00 6.404919999999999725e+00 1.361159999999999926e+00 3.513110000000000177e+00 3.897019999999999929e+00 1.710890000000000022e+00 3.457019999999999982e+00 8.865669999999999717e+00 1.672129999999999894e+00 9.174830000000000041e+00 3.896729999999999805e+00 1.569039999999999990e+00 8.960210000000000008e+00 9.338150000000000617e+00 6.594249999999999723e+00 3.850119999999999987e+00 3.849270000000000191e+00 6.966639999999999944e+00 3.771809999999999885e+00 8.795310000000000628e+00 6.774429999999999730e+00 9.083629999999999427e+00 3.981500000000000039e+00 6.898419999999999774e+00 8.886490000000000222e+00 9.056689999999999685e+00 7.668099999999999916e-01 1.499670000000000059e+00 1.090479999999999894e+00 7.519000000000000128e-01 1.683920000000000083e+00 6.106700000000000017e+00 1.255479999999999929e+00 6.709570000000000256e+00 1.584710000000000063e+00 1.296310000000000073e+00 6.944519999999999804e+00 6.634800000000000253e+00 6.241620000000000168e+00 1.850610000000000088e+00 7.659099999999999797e-01 6.291120000000000267e+00 1.728410000000000002e+00 6.243619999999999948e+00 6.346700000000000230e+00 7.517470000000000319e+00 1.112600000000000033e+00 6.595670000000000144e+00 7.100719999999999921e+00 6.115649999999999586e+00