-9.375852125500000511e+02
-9.261626168599999573e+02
-9.266616136799999595e+02
-9.285787567300000092e+02
-9.281546453800000336e+02
-9.312869927100000496e+02
-9.150145160299999816e+02
-9.276771090700000286e+02
-9.341293292000000292e+02
-9.431679259799999500e+02
-9.287919954100000268e+02
-9.121348912199999859e+02
-9.259372447199999669e+02
-9.167646653900000047e+02
-9.287845426999999745e+02
-9.312463816700000052e+02
-9.340993141699999569e+02
-9.385195713099999466e+02
-9.386891868300000397e+02
-9.060807074800000009e+02
-9.285831039500000088e+02
-9.205790483499999937e+02
-9.390619818300000361e+02
-9.332519863300000225e+02
-9.285479178299999603e+02
-9.355374004999999897e+02
-9.267932900900000277e+02
-9.380929384800000435e+02
-9.236249579300000505e+02
-9.210901454199999989e+02
-9.189344742299999780e+02
-9.305094447899999750e+02
-9.287638409899999488e+02
-9.303009341700000050e+02
-9.342439682100000482e+02
-9.269591557300000204e+02
-9.335499715700000252e+02
-9.273132109199999604e+02
-9.132899815700000090e+02
-9.165332993299999771e+02
-9.121321009700000104e+02
-9.237182619400000476e+02
-9.307014964300000202e+02
-9.216867673900000000e+02
-9.099345491200000424e+02
-9.341521518499999956e+02
-9.275285647800000106e+02
-9.226485044400000106e+02
-9.157840699500000028e+02
-9.229528679500000408e+02
-9.175200547499999857e+02
-9.350300552999999582e+02
-9.295061344900000222e+02
-9.111520907599999646e+02
-9.299698103199999650e+02
-9.173668433899999854e+02
-9.408475353600000517e+02
-9.197618546100000003e+02
-9.269933194899999762e+02
-9.296697973899999852e+02
-9.188845024900000453e+02
-9.282660495400000400e+02
-9.165099299800000381e+02
-9.222462305599999581e+02
-9.401866853499999479e+02
-9.285373297300000104e+02
-9.245428331499999786e+02
-9.429751521700000012e+02
-9.337326928200000111e+02
-9.156872330400000237e+02
-9.326227253299999802e+02
-9.242319346699999869e+02
-9.307305295999999544e+02
-9.186608422299999575e+02
-9.324242400099999486e+02
-9.236755132499999945e+02
-9.215476537900000267e+02
-9.257831565699999601e+02
-9.300004783599999882e+02
-9.206185394300000553e+02
-9.144314002500000242e+02
-9.135337955999999622e+02
-9.201181441500000346e+02
-9.326877333700000463e+02
-9.323952726999999641e+02
-9.135443958199999770e+02
-9.262324315299999853e+02
-9.226621285500000340e+02
-9.289631730800000469e+02
-9.160280253600000151e+02
-9.271447795200000428e+02
-9.374482763299999988e+02
-9.208544461599999522e+02
-9.332436217499999884e+02
-9.166168177099999639e+02
-9.270101334500000121e+02
-9.287915975500000059e+02
-9.287653183300000137e+02
-9.315418713300000491e+02
-9.285129559299999755e+02
