-8.991457772300000215e+02
-8.996473671200000126e+02
-8.961502587799999446e+02
-9.103865538200000174e+02
-9.086281757100000505e+02
-8.922403585800000201e+02
-9.000994099099999630e+02
-9.047116438199999493e+02
-9.019534178599999450e+02
-8.979261856299999636e+02
-9.054283098800000289e+02
-9.075707123800000318e+02
-9.048161820899999839e+02
-8.917927999500000169e+02
-8.895252777800000104e+02
-8.906146212300000116e+02
-9.078288626999999451e+02
-9.051860980899999731e+02
-8.999422801800000116e+02
-8.945340360300000384e+02
-9.140411213200000020e+02
-8.846335067799999479e+02
-9.015229534500000454e+02
-8.868887116800000285e+02
-9.077733520100000533e+02
-9.137104225799999995e+02
-8.875505136499999708e+02
-8.957728806500000474e+02
-8.956047224599999481e+02
-8.927985522499999433e+02
-9.033992752499999597e+02
-8.983611670100000310e+02
-8.876544281200000341e+02
-9.106113178199999538e+02
-8.856976503600000115e+02
-9.054888534499999651e+02
-8.978579690399999436e+02
-8.936322287199999437e+02
-8.967340146799999729e+02
-8.880105259299999716e+02
-9.042257282599999826e+02
-8.891163874999999734e+02
-9.117749318899999480e+02
-8.970218087800000148e+02
-8.894615988699999889e+02
-8.944007223400000157e+02
-9.063765121999999792e+02
-9.123883048799999642e+02
-8.916700090499999760e+02
-8.948133748999999852e+02
