4.661887839559622826e+00 3.044055259642057365e+00 2.606977490756610560e+00 3.795941985267869967e+00 3.067232261950437078e+00 7.840496510823216525e+00 4.644969927938813470e+00 8.229357187723516986e+00 2.606978529257068189e+00 3.779014073688580666e+00 8.252534173701421949e+00 7.840497573065997372e+00 9.768633503802282902e+00 3.033542920877339899e+00 2.643744867226502926e+00 8.902687649510530932e+00 3.056719923185719612e+00 7.877263887293108446e+00 9.751705592222995378e+00 8.218844832628326103e+00 2.643745929469284217e+00 8.885759754314236147e+00 8.242011834974587003e+00 7.877264971654073022e+00 1.762239635535760574e+00 4.482447993671520026e-01 3.068075391346681169e+00 8.962937812440077145e-01 4.714218016755314378e-01 8.301594411413287133e+00 1.745311723956471495e+00 5.633546711118137651e+00 3.068076453589462460e+00 8.793658860477125971e-01 5.656713713464398552e+00 8.301595495774250821e+00 6.895635933463239553e+00 4.578502890760831057e-01 3.038874667179201516e+00 6.029690079171486694e+00 4.810272913844625964e-01 8.272393687245807925e+00 6.878708038266943881e+00 5.643142200864949665e+00 3.038875751540165648e+00 6.012762183975191022e+00 5.666319203173329377e+00 8.272394771606771613e+00 2.190436667708112850e+00 2.572816359390318830e+00 4.376590439066954663e-01 1.324490829799353397e+00 2.595983361736579287e+00 5.671178086091484438e+00 2.173508772511817178e+00 7.758108271179184889e+00 4.376601282676596538e-01 1.307562918220064319e+00 7.781285273487564602e+00 5.671179148334265285e+00 7.340020076849866904e+00 2.613702637651499128e+00 4.329407664732769501e-01 6.474074238941106785e+00 2.636869639997759140e+00 5.666459808658065533e+00 7.323092181653571231e+00 7.798994549440365631e+00 4.329418508342411376e-01 6.457146327361817484e+00 7.822171551748745344e+00 5.666460870900846380e+00 3.366027017864844151e+00 5.233735822899610923e+00 1.045810913338550030e+01 4.231972872156597454e+00 5.210558820591231211e+00 5.224590113318894780e+00 3.382954929444133452e+00 4.843391114862555941e-02 1.045810807114271945e+01 4.248900783735885867e+00 2.525690884024607216e-02 5.224589051076113044e+00 1.017878315338228568e+01 5.142758529766072506e+00 3.759545503434450625e-02 9.312837299090533705e+00 5.165935532074452219e+00 5.271114475100950436e+00 1.016185524180299815e+01 1.032806044151705827e+01 3.759651727712583907e-02 9.295909387511244404e+00 1.035123744382543798e+01 5.271115537343732171e+00 3.474947855496878013e+00 4.531430249923632303e+00 3.345699578227950610e+00 2.609002001205125154e+00 4.554607252232012016e+00 8.579218598294556131e+00 3.458019943917589156e+00 9.716732161674617174e+00 3.345700640470731901e+00 2.592074089625836297e+00 9.739909163982996887e+00 8.579219660537336978e+00 8.575873354404919269e+00 4.515789739306862671e+00 3.383092117823361722e+00 7.709927476407052893e+00 4.538966719458253252e+00 8.616601137942613065e+00 8.558945442825628191e+00 9.701091651057849319e+00 3.383093180066143013e+00 7.692999564827763592e+00 9.724268631209239899e+00 8.616602200185393912e+00 2.955164400152117565e+00 1.935423748887565187e+00 2.326128383691573820e+00 2.089218545860365595e+00 1.958600751195944456e+00 7.559647403758179784e+00 2.938236488572829153e+00 7.120725660638550281e+00 2.326129445934355111e+00 2.072290634281075850e+00 7.143902662946929993e+00 7.559648466000960632e+00 8.076165935934145779e+00 1.968050337918309189e+00 2.306566085607897776e+00 7.210220098025388324e+00 1.991217340264569646e+00 7.540085127792687025e+00 8.059238040737852771e+00 7.153342249707176137e+00 2.306567169968861908e+00 7.193292186446099024e+00 7.176519252015555850e+00 7.540086190035467872e+00 2.540190792460620628e+00 1.132092542135896718e+00 4.940125826417639310e+00 1.674244914462754474e+00 1.155269522287287964e+00 1.017363484653689198e+01 2.523262857175218254e+00 6.317394431729894677e+00 4.940116888713066423e+00 1.657317002883465396e+00 6.340571434038274390e+00 1.017363590877967283e+01 7.654443041917100565e+00 1.128934611980827452e+00 4.955228998484185077e+00 6.788497187625347706e+00 1.152111614289206942e+00 1.018874801855079149e+01 7.637515130337810376e+00 6.314236523731813655e+00 4.955230060726966812e+00 6.771569276046058405e+00 6.337413526040191591e+00 1.018874908079357233e+01 3.900603267453343292e+00 3.704241889671104015e+00 7.312995512361157857e-01 3.034657413161589989e+00 3.727418891979483728e+00 5.964818571302721750e+00 3.883675355874053547e+00 8.889543801422089331e+00 7.313006134788970769e-01 3.017729494259181244e+00 8.912710781611362876e+00 5.964809655716330816e+00 2.141981961795919043e-01 1.556060010624797041e+00 4.034325698017918960e+00 -6.517476581121608437e-01 1.579237012933176310e+00 9.267844718084525368e+00 1.972703009832967036e-01 6.741351922413663544e+00 4.034326782378882648e+00 -6.686755533084560721e-01 6.764528924722043257e+00 9.267845802445489056e+00 5.333958730420604866e+00 1.570224797694335095e+00 4.005857200771838933e+00 4.468012876128852007e+00 1.593401800002714364e+00 9.239376220838444453e+00 5.317030835224308305e+00 6.755516709483201154e+00 4.005858285132802621e+00 4.451084980932556334e+00 6.778693711791580867e+00 9.239377305199409918e+00 1.043355551881373078e+00 4.145127941881758815e+00 1.647020925304048422e+00 1.774096975896202744e-01 4.168304944190138528e+00 6.880539945370654387e+00 1.026427640302083999e+00 9.330429853632743686e+00 1.647021987546829713e+00 1.604818023933251014e-01 9.353596855979004587e+00 6.880541029731618075e+00 6.243130414768496728e+00 4.155860252265310528e+00 1.630510413469917097e+00 5.377184560476742980e+00 4.179037254573690241e+00 6.864029433536522617e+00 6.226202503189207427e+00 9.341162164016296288e+00 1.630511475712698610e+00 5.360256648897455456e+00 9.364339166324676000e+00 6.864030495779304353e+00 6.824720440786345987e-01 4.091106693114146431e+00 4.291990059297407178e+00 -1.834738102131182880e-01 4.114283695422525255e+00 9.525509079364013587e+00 6.655441488823393703e-01 9.276398604903013378e+00 4.291991143658370866e+00 -2.004017291155271163e-01 9.299575585054403959e+00 9.525500163777621765e+00 5.819780855561781152e+00 4.095974377500214203e+00 4.256370523838155506e+00 4.953835001270028293e+00 4.119151379808593916e+00 9.489889543904761027e+00 5.802852943982490963e+00 9.281276289251202627e+00 4.256371586080938130e+00 4.936907089690738992e+00 9.304453291559578787e+00 9.489890606147541874e+00 6.325412142935602500e-01 1.459423054209121995e+00 1.420204325462694150e+00 -2.334046399981924147e-01 1.482600056517501264e+00 6.653723345529299671e+00 6.156133027142712821e-01 6.644724965960108420e+00 1.420205387705475442e+00 -2.503325515774815768e-01 6.667901968268487245e+00 6.653724407772080518e+00 5.769442281786608007e+00 1.487277916206664941e+00 1.397134890014880337e+00 4.903496427494855148e+00 1.510454918515044431e+00 6.630653910081486302e+00 5.752514370207318706e+00 6.672579827957650700e+00 1.397135952257661851e+00 4.886568532298559475e+00 6.695746830303910713e+00 6.630654994442450878e+00
4.662248633884614080e+00 3.043686026196619654e+00 2.607057453984562567e+00 3.796239608864281578e+00 3.068812945292368699e+00 7.840582303406804066e+00 4.643769789843639195e+00 8.230326575968460290e+00 2.607589229660766339e+00 3.778835212705479840e+00 8.252665142208758908e+00 7.841067709890636728e+00 9.768695035999126475e+00 3.033143840183978757e+00 2.644115607551984493e+00 8.903727128348442932e+00 3.055819763777300579e+00 7.876423413150159369e+00 9.751015114250877858e+00 8.218412599605091629e+00 2.643248521403759987e+00 8.885449765645756059e+00 8.241700864607450328e+00 7.877056394435332898e+00 1.762690150367733244e+00 4.484663532136621278e-01 3.068443834394205982e+00 8.962053871510817782e-01 4.704416584135931445e-01 8.301596792676120273e+00 1.745411379730755996e+00 5.633206033745281616e+00 3.067696970184982330e+00 8.788651555793560721e-01 5.656261524912077121e+00 8.300977681472692993e+00 6.896736354853968187e+00 4.575920864131291510e-01 3.038872630596365365e+00 6.030380027766129025e+00 4.806377771118710562e-01 8.272102913161338833e+00 6.878037110547834843e+00 5.642969977360772660e+00 3.038367720969884722e+00 6.012665329460513242e+00 5.665500726905916551e+00 8.273156818719927585e+00 2.190605809356485079e+00 2.572615529916591370e+00 4.371590852831392926e-01 1.324571951962208782e+00 2.595704113836702298e+00 5.671458513987935213e+00 2.174238310613333169e+00 7.757708423440585754e+00 4.371892822797047717e-01 1.307101715487621441e+00 7.782164740522121704e+00 5.671278293554598449e+00 7.341001761501413370e+00 2.613745877503547810e+00 4.336783473570527958e-01 6.473476571202304797e+00 2.636620455832374255e+00 5.667271781887746052e+00 7.321843793648930898e+00 7.799084147407302048e+00 4.336846156652550688e-01 6.457115678969884698e+00 7.821770285638215192e+00 5.665911829750648110e+00 3.365848301839730272e+00 5.233546438107326892e+00 1.045851997883432460e+01 4.231932046082206966e+00 5.210497891374085810e+00 5.224200343050470430e+00 3.383543416838844298e+00 4.708140111338635775e-02 1.045653966456569783e+01 4.249272467678943954e+00 2.480840105194833181e-02 5.224989165822541359e+00 1.017904350963124571e+01 5.142729242512884547e+00 3.772490340408616444e-02 9.312355371219931399e+00 5.166373616538547431e+00 5.270604644217367074e+00 1.016142549900155601e+01 1.032746907683200632e+01 3.729884474920023424e-02 9.295951751241855021e+00 1.035080906176537852e+01 5.271816389771100120e+00 3.473682094495822881e+00 4.531872805097179935e+00 3.347791609300036608e+00 2.609181714595680823e+00 4.555509338821281951e+00 8.575506153967335621e+00 3.460324946170214133e+00 9.716980968567783705e+00 3.347974636896697831e+00 2.593448309478071145e+00 9.736259775467347666e+00 8.578484484871543359e+00 8.570257397069983796e+00 4.514602515865356658e+00 3.383988066321952815e+00 7.710010067535226774e+00 4.542315059026384994e+00 8.615783518934744478e+00 8.556661666835866598e+00 9.703688361000498475e+00 3.383292841535451512e+00 7.695061978181438889e+00 9.721199569647636096e+00 8.615504105339914176e+00 2.954890156546237101e+00 1.934837769580856293e+00 2.328150342814984342e+00 2.090079624202835884e+00 1.960176250046187008e+00 7.556971857559547701e+00 2.938438006929891433e+00 7.122801254103831248e+00 2.323984358029710151e+00 2.076275647417792580e+00 7.145406824483194974e+00 7.558575680666880459e+00 8.076663380606458276e+00 1.964041973110334904e+00 2.306943789677483370e+00 7.207606145770379058e+00 1.992921985840800048e+00 7.539597544909503846e+00 8.061553271331671766e+00 7.151338534734371422e+00 2.303176103233276262e+00 7.192871998424319457e+00 7.178492082968197074e+00 7.537152799495725475e+00 2.537770355017680224e+00 1.131958658458581901e+00 4.935641837373745844e+00 1.674085636874749428e+00 1.155770699309883520e+00 1.017428411708295144e+01 2.522040012960276911e+00 6.318972189700012621e+00 4.940006291182749365e+00 1.658002996229563042e+00 6.342712087437719859e+00 1.017341953837377311e+01 7.656461075619201750e+00 1.127753593259868570e+00 4.957796844810958170e+00 6.789895838174811793e+00 1.153484737331434307e+00 1.018912166243390161e+01 7.636325531191754834e+00 6.313674095072997261e+00 4.955014125839915629e+00 6.773892736510901180e+00 6.335487610062024544e+00 1.018887784069940849e+01 3.901811924582302193e+00 3.705845744275487963e+00 7.276231129661845376e-01 3.039147238853447064e+00 3.726564765258865375e+00 5.964149816637791979e+00 3.883835233438017287e+00 8.889053200443303382e+00 7.309113194458647378e-01 3.017830151132847138e+00 8.911730062348906856e+00 5.964411587980846363e+00 2.153480180838101554e-01 1.554138793924111361e+00 4.032927221712224508e+00 -6.543142296242537848e-01 1.580668194732485876e+00 9.270277644168613662e+00 1.979858266869174710e-01 6.740097009771185199e+00 4.031577852182024024e+00 -6.693502839950042915e-01 6.766576537709391381e+00 9.267262862007131119e+00 5.334824603449078495e+00 1.570743158811414242e+00 4.004473992309291575e+00 4.464163370174221157e+00 1.592234187745114715e+00 9.238787930500970802e+00 5.314955373608503564e+00 6.756168539331532052e+00 4.008221773429822221e+00 4.453012619443190268e+00 6.778945045753022924e+00 9.238552174293340968e+00 1.045144882508957540e+00 4.141465340987982913e+00 1.640004761779864095e+00 1.813170034055763269e-01 4.167337344822075629e+00 6.878732817062115146e+00 1.027897247256881696e+00 9.332204596148244491e+00 1.648074576926450874e+00 1.576199422370475889e-01 9.353850832902256940e+00 6.879937248174789133e+00 6.239193915897674358e+00 4.156598890539611624e+00 1.628288097079357177e+00 5.378811908757413107e+00 4.177495092051213277e+00 6.861848981214716758e+00 6.224821144760898761e+00 9.341108559024013047e+00 1.629904865955653204e+00 5.361822926160632719e+00 9.366291235368585433e+00 6.863802456347052328e+00 6.838963940350210047e-01 4.087116988713032306e+00 4.291075517885836632e+00 -1.818392251470054566e-01 4.117616405319902917e+00 9.525517820162761495e+00 6.646605858775229692e-01 9.278356828041820492e+00 4.291838898608687281e+00 -1.996476855477421208e-01 9.301674469574706450e+00 9.524433720123077762e+00 5.819879949424952237e+00 4.094281112873675355e+00 4.254824032547914747e+00 4.955253873549261279e+00 4.115125824742288607e+00 9.490855104810847820e+00 5.806000951022556755e+00 9.283463597811296708e+00 4.252819258261236079e+00 4.935652266417020151e+00 9.303164097057951665e+00 9.491186444134601885e+00 6.295180151353840792e-01 1.456741042283981935e+00 1.417017418045869670e+00 -2.365058625383681945e-01 1.482172512744903692e+00 6.657131662574237829e+00 6.149457812357186359e-01 6.646519605031562250e+00 1.418272983586539748e+00 -2.481123157134446089e-01 6.666263317676415667e+00 6.652692769780753856e+00 5.770009578632745217e+00 1.484591544055716694e+00 1.398359503813174420e+00 4.902321262567418181e+00 1.509055367620159016e+00 6.631729802588173683e+00 5.755210987662495725e+00 6.673352262296869064e+00 1.396237843415691460e+00 4.885706857336962194e+00 6.696074361097647198e+00 6.630176308909236482e+00
4.662599451957238017e+00 3.043316798577696325e+00 2.607147440902193303e+00 3.796537272549800335e+00 3.070383650829168865e+00 7.840678118055929069e+00 4.642569675454577549e+00 8.231295986370390949e+00 2.608209930011817779e+00 3.778646391853004882e+00 8.252786116580489661e+00 7.841647892523137209e+00 9.768746568237487438e+00 3.032744743160143308e+00 2.644486371619789278e+00 8.904756567138766954e+00 3.054929565843538697e+00 7.875572940683997381e+00 9.750324636278762114e+00 8.217980366581858931e+00 2.642751113338235758e+00 8.885139776977275972e+00 8.241389894240313652e+00 7.876847817216591885e+00 1.763150625069079158e+00 4.486979011957773489e-01 3.068802231633869670e+00 8.961170167642693585e-01 4.694615373086428733e-01 8.301609173886307147e+00 1.745521059169634848e+00 5.632865394859886798e+00 3.067327462985533604e+00 8.783743849803727910e-01 5.655819330495360120e+00 8.300349821363276703e+00 6.897836776244695933e+00 4.573338837501751408e-01 3.038870594013529214e+00 6.031059952696177895e+00 4.802482243518175764e-01 8.271802162871843223e+00 6.877356222959351228e+00 5.642787759720993002e+00 3.037869736207465365e+00 6.012558434898247484e+00 5.664692212113160430e+00 8.273908867509868870e+00 2.190774958327977195e+00 2.572424722561971411e+00 4.366691044887545670e-01 1.324643074166583556e+00 2.595424849606352335e+00 5.671738965626710538e+00 2.174967872420962234e+00 7.757308597858973975e+00 4.367284362391041230e-01 1.306640536461291413e+00 7.783044229713666162e+00 5.671387438722286234e+00 7.341983429769966207e+00 2.613799117317714860e+00 4.344159061226457452e-01 6.472878903463505473e+00 2.636371271666989813e+00 5.668083755117426570e+00 7.320595422027284194e+00 7.799163745412119653e+00 4.344274026144517298e-01 6.457095030536430968e+00 7.821369035858158902e+00 5.665362764858125288e+00 3.365669609520729910e+00 5.233357075472030218e+00 1.045894082423050264e+01 4.231891220007818255e+00 5.210436962156940410e+00 5.223810572782045192e+00 3.350276073751857542e+00 1.041632269246101217e+01 1.045496340464506702e+01 4.249644127915887637e+00 2.435987110666251385e-02 5.225379280621615941e+00 1.017929384221560873e+01 5.142699916772235369e+00 3.784437556879713394e-02 9.311863443390851813e+00 5.166811684672168781e+00 5.270094837076106487e+00 1.016099575620011386e+01 1.032687771214695438e+01 3.700117222127462940e-02 9.295994091266353010e+00 1.035038065754832814e+01 5.272507242251113446e+00 3.472406326213166139e+00 4.532305321821144872e+00 3.349873686285274488e+00 2.609361451692349121e+00 4.556411447567537465e+00 8.571803709587467068e+00 3.462619964847352350e+00 9.717219759168356674e+00 3.350248679183170264e+00 2.594802536736463328e+00 9.732620376409860441e+00 8.577759334519569734e+00 8.564651479782638077e+00 4.513405330949193939e+00 3.384894013143758151e+00 7.710092675046395172e+00 4.545653398632398812e+00 8.614965922045055180e+00 8.554387890804587613e+00 9.706285087273622381e+00 3.383492479262436348e+00 7.697104375235158891e+00 9.718140475387203381e+00 8.614406035860900701e+00 2.954615889234242676e+00 1.934251768117159598e+00 2.330162301991040241e+00 2.090950742592894596e+00 1.961741787421772631e+00 7.554306309684130305e+00 2.938639534346828786e+00 7.124856825487884571e+00 2.321829314414076695e+00 2.080250660596027590e+00 7.146910969688986981e+00 7.557502919075122172e+00 8.077160785189661851e+00 1.960043586107491631e+00 2.307311471681532389e+00 7.205002209856846029e+00 1.994616647785385721e+00 7.539109960402179844e+00 8.063868518308488831e+00 7.149324819799448782e+00 2.299785058615873901e+00 7.192441786737944653e+00 7.180464875433376193e+00 7.534209432750951230e+00 2.535369941197814558e+00 1.131824829599203275e+00 4.931167800792558786e+00 1.673936328215991809e+00 1.156261848386858082e+00 1.017491338611016261e+01 2.520827185086810474e+00 6.320539964038485614e+00 4.939895692028291485e+00 1.658688949486553099e+00 6.344862718642296784e+00 1.017319314590233503e+01 7.658469125745816619e+00 1.126562558246316348e+00 4.960364736998238655e+00 6.791304505065752117e+00 1.154847876742016721e+00 1.018949530469287268e+01 7.635145939327300901e+00 6.313121704863761785e+00 4.954808145039713452e+00 6.776206180634268605e+00 6.333571677715500670e+00 1.018900660222938370e+01 3.903010621841888739e+00 3.707439604744265260e+00 7.239567205041140818e-01 3.043627080969817378e+00 3.725700622245653459e+00 5.963481107833367822e+00 3.883985111043500638e+00 8.888562583134040906e+00 7.305220491551559503e-01 3.017940784258880793e+00 8.910749337259940006e+00 5.964003496555684514e+00 2.164978162819148066e-01 1.552217555066437882e+00 4.031518745459176323e+00 -6.568708412669733709e-01 1.582109370667400539e+00 9.272700524444839942e+00 1.986913524320574609e-01 6.738842080798232104e+00 4.028828945727487287e+00 -6.700250383876659166e-01 6.768624128539751261e+00 9.266669921621417672e+00 5.335680492902064920e+00 1.571251503635900271e+00 4.003090829707250720e+00 4.460313824130482274e+00 1.591076553292645634e+00 9.238189618097958800e+00 5.312879904669578934e+00 6.756810347060755007e+00 4.010575283897669152e+00 4.454940298042931346e+00 6.779186401909334414e+00 9.237737065452812146e+00 1.046934244165774741e+00 4.137812784370300534e+00 1.633008576032205283e+00 1.852143019399319634e-01 4.166359707004430923e+00 6.876915734666729563e+00 1.029356830547085266e+00 9.333979300176277860e+00 1.649117190101041297e+00 1.547680656562570034e-01 9.354114826118104631e+00 6.879333420757454576e+00 6.235267433368326451e+00 4.157327545182266881e+00 1.626065779064656436e+00 5.380439264361202234e+00 4.175962951647845145e+00 6.859678506722080904e+00 6.223449778967951040e+00 9.341044948243094836e+00 1.629288254627112797e+00 5.363399210705411591e+00 9.368253342862075783e+00 6.863584371001648421e+00 6.853007039853384885e-01 4.083137229456102801e+00 4.290151001893375948e+00 -1.802046474040123192e-01 4.120939093098173522e+00 9.525516583132338511e+00 6.637870555971753239e-01 9.280295067586864732e+00 4.291686674053043937e+00 -1.988936255969632472e-01 9.303763354132888352e+00 9.523367298586714824e+00 5.819979026905129693e+00 4.092597848209255318e+00 4.253277519139491147e+00 4.956672705739387119e+00 4.111110247481113866e+00 9.491810643651398038e+00 5.809148998151729693e+00 9.285640928566262886e+00 4.249276952507070604e+00 4.934397443143303974e+00 9.301874902556320990e+00 9.492482282121660120e+00 6.265048396418021470e-01 1.454059068846304204e+00 1.413840486834076149e+00 -2.395970851200631968e-01 1.481744985302780204e+00 6.660539955876853213e+00 6.142682597986852677e-01 6.648314227772542218e+00 1.416340603209927496e+00 -2.458920561432940133e-01 6.664624689241333222e+00 6.651671131736781817e+00 5.770566835431294450e+00 1.481915133379425376e+00 1.399574119288255369e+00 4.901136057592392348e+00 1.507665778199930751e+00 6.632795696771648153e+00 5.757887612523832743e+00 6.674134686094247648e+00 1.395349759887539953e+00 4.884845206081476654e+00 6.696401914048371928e+00 6.629707623323376708e+00
4.662960246282228383e+00 3.042947565132259058e+00 2.607227404130145754e+00 3.796834912529206019e+00 3.071954334208981674e+00 7.840763932757699450e+00 4.641379537317884107e+00 8.232265390945805450e+00 2.608820606673192266e+00 3.778457530911422779e+00 8.252917068757351871e+00 7.842218053090100227e+00 9.768798100475848400e+00 3.032345646136308304e+00 2.644857135687594507e+00 8.905786046018199897e+00 3.054029390104645358e+00 7.874732490283371078e+00 9.749634141923651853e+00 8.217558133520746821e+00 2.642253683154528243e+00 8.884819812056431232e+00 8.241078929699691358e+00 7.876649263687530045e+00 1.763611139859532440e+00 4.489194713727615582e-01 3.069170650939070821e+00 8.960286062883494607e-01 4.684913940088236695e-01 8.301611533030959222e+00 1.745630714902399960e+00 5.632524733817506402e+00 3.066947955838729811e+00 8.778736545120162660e-01 5.655367141943039577e+00 8.299732007061717098e+00 6.898927190353825623e+00 4.570656426376399906e-01 3.038858603343844944e+00 6.031739877626226765e+00 4.798586715917639300e-01 8.271501412582345836e+00 6.876685311623234931e+00 5.642605536254696297e+00 3.037361727755367280e+00 6.012461556677457075e+00 5.663873713688758471e+00 8.274660914675669332e+00 2.190944083593356240e+00 2.572233893050363207e+00 4.361691237470154969e-01 1.324724196329438941e+00 2.595145601706475347e+00 5.672019393523162201e+00 2.175697410522478670e+00 7.756908750120373952e+00 4.362575902511492965e-01 1.306179333728848313e+00 7.783923696748223264e+00 5.671486583942619397e+00 7.342975074290887250e+00 2.613852351305368416e+00 4.351434411985609096e-01 6.472291252066178835e+00 2.636112103869959977e+00 5.668895726722966266e+00 7.319347050405636601e+00 7.799243343416937257e+00 4.351701895636485018e-01 6.457064382144499071e+00 7.820967769747628751e+00 5.664813723707927018e+00 3.365490877112622403e+00 5.233177690641865887e+00 1.045935164756114233e+01 4.231840377591955082e+00 5.210386016571439960e+00 5.223420804137761664e+00 3.350864537440454871e+00 1.041497016026878342e+01 1.045338499812069166e+01 4.250015788152831320e+00 2.391134116137670282e-02 5.225769395420690522e+00 1.017954417479997531e+01 5.142670591031585303e+00 3.796384773350808262e-02 9.311371508238647010e+00 5.167239730686683963e+00 5.269575052105675894e+00 1.016056603710478434e+01 1.032628636961888802e+01 3.671349964070329958e-02 9.296036431290849222e+00 1.034995225333128133e+01 5.273198094731125884e+00 3.471140534182877602e+00 4.532737832718597204e+00 3.351945739580835415e+00 2.609541212495131823e+00 4.557313578470783888e+00 8.568111265154955802e+00 3.464904943476902144e+00 9.717468511243584572e+00 3.352512723146428897e+00 2.596136731311907031e+00 9.729000944615659563e+00 8.577034187415874200e+00 8.559065578795244988e+00 4.512198178731861020e+00 3.385799934599098560e+00 7.710195275151406236e+00 4.548981748780251522e+00 8.614138299841551216e+00 8.552144140091616720e+00 9.708851840494824970e+00 3.383682112169644984e+00 7.699136739564409915e+00 9.715101364720535315e+00 8.613307945887845207e+00 2.954341581833140218e+00 1.933675744458593693e+00 2.332164239101559566e+00 2.091801877448985714e+00 1.963297292174290831e+00 7.551640831411541299e+00 2.938831109217511894e+00 7.126912424855439632e+00 2.319694294435475257e+00 2.084205706623289078e+00 7.148395082309592752e+00 7.556430249204377780e+00 8.077678180629954241e+00 1.956065253846822616e+00 2.307689061911922579e+00 7.202398297649425629e+00 1.996311331886959195e+00 7.538632375842210465e+00 8.066183796314534860e+00 7.147321149140619667e+00 2.296413991774997498e+00 7.192021655188264972e+00 7.182417728618768038e+00 7.531286086394929136e+00 2.532979598454770720e+00 1.131691083541262799e+00 4.926723740311111044e+00 1.673787035940228485e+00 1.156742997501713388e+00 1.017554267725555661e+01 2.519614309801116558e+00 6.322107694062983896e+00 4.939765092979124361e+00 1.659384911761898396e+00 6.346993344096121703e+00 1.017295677397758702e+01 7.660467143147963398e+00 1.125391506826528332e+00 4.962932608691476233e+00 6.792703148292096316e+00 1.156210977665137030e+00 1.018985897074681191e+01 7.633976340098205249e+00 6.312559308865893115e+00 4.954592162668016719e+00 6.778509632122275086e+00 6.331665751157611766e+00 1.018914536533085524e+01 3.904199359232100708e+00 3.709023471077439016e+00 7.203003738499044184e-01 3.048086915846106137e+00 3.724826424452385876e+00 5.962802468684420987e+00 3.884144972224470749e+00 8.888081982117375546e+00 7.301327330039406593e-01 3.018051401001920375e+00 8.909778612133088416e+00 5.963595383012338935e+00 2.176376218446583188e-01 1.550306321997397596e+00 4.030120270777622693e+00 -6.594174602743316793e-01 1.583540540813682007e+00 9.275113403149573443e+00 1.993969018833109674e-01 6.737587173982267252e+00 4.026090039220306060e+00 -6.706997927803278747e-01 6.770671719370111141e+00 9.266076981235704224e+00 5.336546389636652954e+00 1.571769886909967662e+00 4.001717621192057983e+00 4.456484318092813979e+00 1.589908973695993932e+00 9.237601280275836046e+00 5.310804388318427272e+00 6.757452110476001472e+00 4.012908794470807727e+00 4.456867993025666053e+00 6.779417758103526204e+00 9.236921978730464389e+00 1.048713660599458475e+00 4.134170277855228726e+00 1.626042391750750049e+00 1.891016078389263777e-01 4.165392074975421188e+00 6.875108653842839423e+00 1.030816406514168948e+00 9.335743982085210391e+00 1.650149825446460161e+00 1.519162291645738960e-01 9.354368841528819090e+00 6.878739615405657482e+00 6.231350974503572004e+00 4.158056238312383357e+00 1.623853437254986432e+00 5.382076643629586599e+00 4.174430849731938231e+00 6.857518008434476897e+00 6.222078436881116836e+00 9.340981359619165758e+00 1.628681643245926569e+00 5.364965504351583370e+00 9.370195411943864627e+00 6.863356353687578348e+00 6.867049574635545328e-01 4.079177447966421788e+00 4.289216441717195849e+00 -1.785700696610192095e-01 4.124261780876444128e+00 9.525515346101915526e+00 6.629035490644604733e-01 9.282233312958425131e+00 4.291544473187079767e+00 -1.981295419815899961e-01 9.305852277178534138e+00 9.522310853255383734e+00 5.820078080679193633e+00 4.090914561387845261e+00 4.251721005783713814e+00 4.958081505205044870e+00 4.107114653813703775e+00 9.492766161997904462e+00 5.812287109117643347e+00 9.287808287342611990e+00 4.245754692508121764e+00 4.933152579738958821e+00 9.300595702190296521e+00 9.493768074300858117e+00 6.235016714298207141e-01 1.451387133858207834e+00 1.410673509709130524e+00 -2.426783077432774216e-01 1.481317474191130579e+00 6.663948225437144934e+00 6.136007784092398776e-01 6.650098889038866368e+00 1.414418221156529043e+00 -2.436817965316242229e-01 6.662986044475776026e+00 6.650649517435132552e+00 5.771134075805329999e+00 1.479248738995727175e+00 1.400788688902829371e+00 4.899960852575848236e+00 1.506276205110176347e+00 6.633861567212798960e+00 5.760564253768163390e+00 6.674907109929506532e+00 1.394461698477571066e+00 4.883993554784472835e+00 6.696729483329570520e+00 6.629238913995193272e+00