-9.310012105499999961e+02
-9.309959385900000370e+02
-9.309802517800000032e+02
-9.309543114399999695e+02
-9.309183928200000082e+02
-9.308728803999999855e+02
-9.308182794199999535e+02
-9.307551708299999973e+02
-9.306842427200000429e+02
-9.306062573699999803e+02
-9.305220447399999557e+02
-9.304325010200000179e+02
-9.303385648700000274e+02
-9.302412081400000261e+02
-9.301414363599999433e+02
-9.300402514999999539e+02
-9.299386700999999675e+02
-9.298376721600000110e+02
-9.297382202799999504e+02
-9.296412174800000230e+02
-9.295475242899999557e+02
-9.294579252099999849e+02
-9.293731378300000188e+02
-9.292937859500000286e+02
-9.292204124500000262e+02
-9.291534563899999739e+02
-9.290932510200000252e+02
-9.290400323799999569e+02
-9.289939274500000010e+02
-9.289549786300000278e+02
-9.289231108000000177e+02
-9.288981583900000487e+02
-9.288798801899999944e+02
-9.288679361099999596e+02
-9.288619263099999444e+02
-9.288613916399999653e+02
-9.288658130899999605e+02
-9.288746379899999965e+02
-9.288872728200000211e+02
-9.289031130099999700e+02
-9.289215507999999772e+02
-9.289419864200000347e+02
-9.289638094900000169e+02
-9.289864664299999504e+02
-9.290094119000000319e+02
-9.290321514199999910e+02
-9.290542358899999726e+02
-9.290752619099999947e+02
-9.290948985200000152e+02
-9.291128650099999504e+02
-9.291289311299999554e+02
-9.291429470399999673e+02
-9.291548197199999777e+02
-9.291644970900000544e+02
-9.291720054400000208e+02
-9.291774070300000403e+02
-9.291808127299999569e+02
-9.291823834199999510e+02
-9.291822968899999751e+02
-9.291807667799999990e+02
-9.291780344200000172e+02
-9.291743387000000212e+02
-9.291699338500000067e+02
-9.291650737400000253e+02
-9.291599891800000250e+02
-9.291549161299999469e+02
-9.291500562300000183e+02
-9.291455862399999432e+02
-9.291416719100000137e+02
-9.291384209000000283e+02
-9.291359276700000009e+02
-9.291342513099999678e+02
-9.291334016700000120e+02
-9.291333563299999696e+02
-9.291340726800000311e+02
-9.291354535499999656e+02
-9.291373890900000561e+02
-9.291397514599999568e+02
-9.291423764200000051e+02
-9.291450989600000412e+02
-9.291477342900000167e+02
-9.291500940700000228e+02
-9.291519980900000064e+02
-9.291532512999999653e+02
-9.291536928699999862e+02
-9.291531669500000135e+02
-9.291515321499999800e+02
-9.291486701500000436e+02
-9.291445029999999861e+02
-9.291389699500000461e+02
-9.291320347700000184e+02
-9.291237106099999892e+02
-9.291140290800000230e+02
-9.291030649399999675e+02
-9.290909272999999757e+02
-9.290777471000000105e+02
-9.290636804099999608e+02
-9.290489157800000157e+02
-9.290336658500000340e+02
-9.290181445599999961e+02
