1.607509399860017948e-03 3.846886150399795039e-04 4.763393735776067775e-04 1.611510289239757822e-03 3.826929391069612638e-04 4.753343055493337182e-04 1.608522502103209521e-03 3.766902783920994665e-04 4.763546938915502434e-04 1.612530676992473405e-03 3.716968295221577509e-04 4.763562560535656567e-04 -1.106043549373419066e-03 3.619773654675055227e-04 -1.452187678565911976e-03 -1.122045679878602101e-03 3.589446009769128583e-04 -1.455143039599643764e-03 -1.107029532838967002e-03 3.519735546021924579e-04 -1.453163180886109414e-03 -1.123030025044760658e-03 3.479407938996894570e-04 -1.456116330101554085e-03 9.906221220095808543e-04 -3.979361469067375814e-05 -1.882612005036757611e-04 9.936015063635719388e-04 -3.880644492701585817e-05 -1.962704929024406135e-04 9.906328577933350317e-04 -4.779580008476373292e-05 -1.892435006928033705e-04 9.936153450706519501e-04 -4.580420271158056435e-05 -1.952550154390027238e-04 -2.107074014087630814e-03 -8.389291037042861292e-04 2.378551200091391334e-04 -2.110101890331642690e-03 -8.349539592881195750e-04 2.288534428142178286e-04 -2.106062550143828187e-03 -8.459274441402558301e-04 2.378682285047952383e-04 -2.111093521007325908e-03 -8.429599934284195007e-04 2.268735221220190897e-04 1.240182800847993002e-03 2.855644038603596295e-04 6.924309292115025114e-04 1.238183541463801652e-03 2.865633496762724623e-04 6.934334605933523306e-04 1.241192800167858525e-03 2.765616396029543507e-04 6.904484718728803698e-04 1.238200656769659555e-03 2.775655994678871306e-04 6.944533616933648611e-04 -9.095341948473670106e-04 -3.133937808044818065e-04 -8.601539900252884235e-04 -9.065024833680605321e-04 -3.153622857004053574e-04 -8.481567522606623744e-04 -9.085194543047867086e-04 -3.223921136642721261e-04 -8.601364578930576236e-04 -9.054917517362265659e-04 -3.233628380470928744e-04 -8.491414266821454334e-04 1.850671734223334822e-03 2.819437642116677913e-04 1.315995002258347731e-03 1.850691605101614659e-03 2.799592816794994757e-04 1.322999389042907531e-03 1.848660274431452623e-03 2.889404716002351090e-04 1.315984267995047021e-03 1.849676132247065913e-03 2.879554026285720877e-04 1.321984073993537649e-03 -1.386980306296831979e-03 -5.440783645518436048e-04 -3.635084086666180323e-04 -1.383973206918520226e-03 -5.440668183132136909e-04 -3.605155471574047251e-04 -1.388993404388103340e-03 -5.360816609513660048e-04 -3.635213547482061842e-04 -1.384983032562933690e-03 -5.380684740891542722e-04 -3.605264438347734689e-04 -1.040560984151074272e-03 -6.704510762932616068e-04 5.679552733796516860e-04 -1.042553305376645078e-03 -6.664410633475805834e-04 5.739511429837714776e-04 -1.039562626602383213e-03 -6.694494470339488329e-04 5.679506873290089295e-04 -1.041551671229176343e-03 -6.674394265120883740e-04 5.739509805697034974e-04 -3.541495250570247141e-04 -1.135792388372810092e-03 1.262362770528452621e-03 -3.451344327687411238e-04 -1.137766604875971267e-03 1.267345799750961436e-03 -3.541487927450562702e-04 -1.134790176462092438e-03 1.263360553445591703e-03 -3.451296915460262899e-04 -1.137762173478356308e-03 1.269345789221814269e-03 -2.405969974557245006e-04 -1.949127279022976750e-03 -3.281126864108985307e-04 -2.416057434372655675e-04 -1.948135562954890964e-03 -3.311125082031098543e-04 -2.395962692956762137e-04 -1.948123434064856279e-03 -3.271172777261147622e-04 -2.416090200360434864e-04 -1.946135570531070400e-03 -3.311169318396845222e-04 3.583378070972249689e-03 7.543594857267199322e-04 6.718373067710021540e-04 3.581356570098421111e-03 7.573406983759936551e-04 6.648354566328657563e-04 3.583370053150757018e-03 7.563550467529255375e-04 6.698328936635746531e-04 3.583349276285056461e-03 7.603417374077220056e-04 6.638240779778666013e-04 -5.874945846140259545e-04 1.624535495148365970e-03 -2.038217490370506507e-03 -5.874836375446592903e-04 1.626548781765031412e-03 -2.032221945594522676e-03 -5.935036571868702437e-04 1.631527886046130801e-03 -2.037218732968959327e-03 -5.914918124339233916e-04 1.631542230634973291e-03 -2.032223507756538306e-03 2.378638452900933963e-03 1.738845091935433860e-04 -4.580265143455904196e-04 2.383654294108866842e-03 1.729059724114902230e-04 -4.520362052765211571e-04 2.373631014475558517e-03 1.798785369268003989e-04 -4.570279193581113820e-04 2.379649222142928358e-03 1.789038488909571801e-04 -4.500399897859710171e-04 -1.865056771098592883e-03 1.233917495641351919e-03 -1.431274011027964646e-05 -1.864065525383973992e-03 1.234912477804242254e-03 -1.731731036720164234e-05 -1.863058417701822034e-03 1.234920757948067185e-03 -1.431970039327767300e-05 -1.863064797223925760e-03 1.235916322762362725e-03 -1.632190168241789421e-05 5.780704719024607656e-04 -1.261777084394634678e-03 -1.681583515265013765e-03 5.790617176170793304e-04 -1.260782102231744559e-03 -1.684588085521935771e-03 5.790606379542067705e-04 -1.255775474075770384e-03 -1.681599160407093192e-03 5.790527938081660485e-04 -1.256784333082910585e-03 -1.685596927530511524e-03 -1.295320781567835548e-04 -5.414647853719895204e-04 -1.017498563601172820e-03 -1.295455695129596398e-04 -5.404758676541165279e-04 -1.022500749096592453e-03 -1.285450150283633567e-04 -5.364676026626503599e-04 -1.019511986395817962e-03 -1.295537610099044236e-04 -5.354758865945651166e-04 -1.022511808188029123e-03 -2.688905461597165553e-04 -9.018497631063812853e-04 2.686370766869179477e-04 -2.658962058256123624e-04 -8.998470872391607254e-04 2.676255356178507583e-04 -2.678854617380177624e-04 -9.078525387280555548e-04 2.666479838934338585e-04 -2.648894831045246778e-04 -9.068498590727454940e-04 2.656386546426540030e-04 -2.348253561385131051e-04 -3.289279857478034962e-04 1.111291335477026729e-03 -2.328332085883941412e-04 -3.299335786601387678e-04 1.107288819888897552e-03 -2.338186334174253934e-04 -3.359307575813881021e-04 1.109304454501829811e-03 -2.338241069521086713e-04 -3.369374008897208774e-04 1.106306682113837895e-03 1.013444331942233658e-05 3.587573668367550041e-04 -1.178195433659602224e-04 9.134447471342503798e-06 3.587557337893525666e-04 -1.178171691336048812e-04 1.014901433847095272e-05 3.527618209629080530e-04 -1.158062829853832637e-04 1.014427311575610523e-05 3.527573895652931480e-04 -1.178062724562361238e-04 -5.006610233879635590e-04 1.947604643967564301e-03 6.408749413544682699e-04 -5.046586361689254325e-04 1.947600327476761706e-03 6.418844330193159428e-04 -5.006511935916297751e-04 1.941604666696102391e-03 6.408882122641923820e-04 -5.046488063725916486e-04 1.941600350205300012e-03 6.418977039290400550e-04 1.995226732887612966e-04 6.540157006825277107e-04 -5.939252192864421164e-04 2.005186602260947224e-04 6.550151142430330050e-04 -5.949298000725112895e-04 2.015177500867540634e-04 6.570189554130635408e-04 -5.939366032060148549e-04 2.025144693360559874e-04 6.590205808842867054e-04 -5.939434010749449454e-04 -1.017927302160528003e-03 8.255262079439644940e-04 1.442591587218588654e-03 -1.013936068901669964e-03 8.265260892490623040e-04 1.439579894264600597e-03 -1.014935506113233367e-03 8.305310881457234886e-04 1.442573405430085717e-03 -1.012940255639788569e-03 8.305299228429135127e-04 1.440568667494522472e-03
-7.780172577642374167e-03 -8.592117787175309121e-03 -5.126545678466858796e-03 1.692859937942290185e-02 -3.768739764898834665e-02 -6.324660504566987328e-03 3.307796560520168822e-02 1.313921727876491558e-02 -1.040958235101193882e-02 4.922638969543091658e-02 -2.773383556199588568e-02 -2.910640004489982446e-02 -1.762117029211316896e-02 -2.078916032501896063e-02 -2.360628881287792774e-02 -2.277747394214542365e-02 3.521823143920246174e-02 1.058601927589673981e-02 5.662886186755547446e-03 5.928581891637663831e-02 -3.925804688270828104e-03 1.512286268256952297e-03 -1.093138604572122322e-02 -1.077042108565179346e-02 -1.746749117011432012e-02 -1.959795479239533414e-02 -3.176733544345837490e-02 8.308598899770839805e-03 2.357192494803502306e-02 2.361119955798371764e-02 1.655011204503558861e-02 1.305944972706681896e-02 -1.795526421757647623e-02 2.486884220554343161e-02 3.155065407915850356e-02 -3.258878263001013971e-03 -4.459453793061093907e-02 -1.632788936493518445e-02 4.625918356579332598e-03 -1.887098518241244957e-02 7.786335421311556086e-03 1.592456743374836073e-02 -2.415267462548420854e-02 1.472893243540643500e-02 2.016227882048520154e-04 1.379642731324682778e-02 2.898913692765358804e-02 -2.286605754344302882e-02 -1.506383209783280358e-02 1.989543810558717235e-03 7.783343237592034447e-03 2.159941039374357191e-02 -8.614932609887802212e-03 -2.842130674288893388e-03 -1.701651329628414352e-02 4.208311648306672925e-02 -9.568954347786481213e-03 1.848925883865923728e-02 2.577169643025092622e-03 -9.101588994682805606e-03 -2.271684495781882071e-02 -3.947721213469409379e-02 1.001637515445493246e-02 4.324443563547353611e-04 -1.730257382760398005e-02 -3.445886927655883447e-02 3.089332995537238946e-02 -1.503719166102683406e-02 -2.836906754227280086e-02 -1.664791028437273557e-02 2.632011956532502583e-02 -7.100889115489067947e-03 1.362956017398354175e-02 1.766940805047919824e-02 -3.480764372389235500e-02 1.168375724202483715e-02 1.987545630548867223e-02 1.186332678290716834e-02 3.188175001218863675e-03 2.409428986386752403e-02 4.022726816622691770e-02 2.216724099761089358e-03 1.106372836675492168e-02 -1.399084253689536830e-02 -4.703986351338090843e-03 3.956325862625388774e-03 -2.169372891125789099e-02 4.321768189743866589e-03 -1.941478837641394742e-02 -7.141265505019380420e-03 1.734077655607487931e-02 -9.812277237394646801e-03 2.050374075257465137e-02 -1.916041181502550414e-02 -2.949846963707259719e-03 -2.280716220772190453e-02 9.430431439914283356e-03 -1.706296658051336887e-02 -3.768474788729997416e-02 9.128939158661128483e-03 2.030092617093604695e-02 3.792957777829417815e-02 -2.635056693071502129e-02 -3.151007777183563539e-03 -1.710164139543443595e-02 -7.110771465296213123e-02 7.160081230169894340e-02 9.058970613142971681e-03 8.201444742788438491e-02 -3.936008003351985918e-02 7.707897597263259262e-04 4.573379684311425220e-02 -5.688295642791085099e-02 -1.612546645319591632e-02 6.871591898672754772e-02 -7.531578652509961225e-02 -1.405109561262467624e-02 -6.162998276282071614e-02 5.828469229690270981e-02 1.240602472630899025e-02 5.442851136855769191e-03 3.618532604752310727e-02 -5.141834936417614965e-02 -3.171836953836892209e-02 -5.177682330809273148e-02 2.999207166819280873e-02 -2.873974558773621790e-02 -5.414874363183265482e-02 3.325128312781717305e-02 -8.005742255067850588e-02 -5.375429598945601073e-02 1.268895516660310807e-02 4.778517660773626968e-02 7.467693988927985582e-02 -8.874788411017749123e-03 3.839732797103315859e-02 1.040519735127734026e-03 3.237583982487132056e-02 -9.386366701777931060e-03 -7.928573440833289535e-03 4.242404210271655957e-02 -1.229587479303188499e-02 -3.796677706014142673e-02 2.871442285228107891e-02 5.236442434996033818e-02 -3.496501549603423485e-03 6.633596072577001290e-02 5.907693191184156499e-03 -2.180954040494579790e-02 -3.577886983240069485e-02 7.343142346734801013e-03 -2.433809484095996595e-02 -2.216859855714898089e-02 1.372523873451165187e-02 -2.868488741343944853e-02 -2.091709025555332085e-02 -4.049083872161248626e-02 3.473719048754556060e-02 -2.081990070183045282e-03 -2.217943079458899874e-02 -1.023602205180708206e-02 -3.329691654167028780e-02 2.128693282006306753e-02 -7.009550540465419623e-03 -7.413971023330388072e-03 -5.506928169192520928e-02 4.429088906450239643e-02 -4.095608967092802255e-03 -3.864029113309614544e-02 -4.189961537232647637e-02 4.062165189650309566e-02 -6.228819235701701235e-02 -2.272878600445954467e-02 -1.476305648091650810e-02 -2.480896130993503167e-03 1.022065577743806568e-02 7.602393480630277372e-04 1.177579354346046207e-02 3.239445365129871302e-02 -8.572737314046997154e-03 -3.164799482902248134e-02 2.694706000623570130e-02 1.438039423390397205e-02 3.606197362391635325e-02 -5.354572352014584299e-03 -3.871582862699701755e-02 -1.225134467498728216e-02 -2.940771620868494647e-03 1.596464308804162319e-02 2.000108520184096933e-02 -1.785013796044694970e-02 -8.064906728642852810e-03 -7.745914892688502557e-03 1.797893790955137384e-03 3.371755647124612121e-02 4.351860031876790547e-02 -1.580232847684915135e-02 1.100853307709811785e-03 2.073285459468505662e-02 -8.398944939510303524e-04 -4.153050722775580850e-02 -3.791051144177321700e-03 -2.072539361233744284e-02 1.984601281960469629e-02 -1.985542236515524736e-02 3.673686921145303402e-02 1.009392030543231761e-01 -3.445362487625042158e-02 -5.743011583456922873e-04 1.498602752787210959e-02 -1.990727707571767272e-02 -4.351068543597623461e-02 -1.442547695302067758e-02 4.033639407372577312e-02 1.224972099017564067e-04 1.239417191919923132e-02 3.333621612736919343e-02 -1.657629474479089572e-03 2.837579498154488289e-02 3.185463279209327456e-03 2.680819798855537534e-02 3.294922307586665988e-02 1.436443152523506246e-02 -1.615337186717578227e-02 -7.163299189449429810e-03 -1.118011144195013226e-02 -2.359573149247927090e-02 -7.833256505464210664e-03 -3.542499724090394930e-02 5.808507141904143550e-02 -3.621991080506412747e-02 1.031223877636161610e-03 -3.157452474753966870e-02 -3.847268753650045364e-02 4.997838174288923678e-03 -4.373691136476633851e-02 8.168102891993520714e-03 1.432224816644769513e-02 -9.788957319045532221e-03 9.772788346454173644e-03 -9.384330643376851550e-03 2.816700607350455104e-02 -3.493181391072565974e-03 -1.848115650858864548e-02 5.774659542188439326e-02 -2.728328105793455943e-02 -2.915889517526001548e-02 -3.063876464229403629e-02 6.199533706136543809e-02 2.743065666499205218e-02 2.226328253262282661e-02 -2.068046502861911259e-02 3.233720708217642514e-02 5.394014834303827166e-02 4.429205910606847513e-02 3.512877030155150265e-02 1.360073287091339948e-02 -2.028651858932153940e-02 1.193210858934270861e-02 -3.231600207090792876e-02 2.286443650661891883e-02 -5.612238330907450175e-03 1.705453704522758062e-03 5.715555754152237822e-03 -5.411907603347733409e-03 3.865171409505104017e-02 -1.969691472305394944e-02 7.370189034647823753e-03 1.234360485910504512e-02 -1.334489181956284055e-02 -3.219593228434786819e-02 -1.755685019030630775e-02 1.580730795350137122e-02 1.199067140045865024e-02 -1.167210906498178900e-02 7.817477812017947433e-03
-1.680388497874045484e-02 -1.871230666906657097e-02 -1.026575772868557231e-02 3.223432612492457827e-02 -7.643100838129575358e-02 -1.289813486866606650e-02 6.483560675943920992e-02 2.620693368072114088e-02 -2.142387948504292233e-02 9.818010026538270818e-02 -5.593546290820920058e-02 -5.882012038515178898e-02 -3.429045481695023462e-02 -4.314867670541870648e-02 -4.581534738510611993e-02 -4.428474799286662850e-02 6.918447367731529740e-02 2.249880841736205672e-02 1.274543812955835145e-02 1.177180028660547023e-01 -6.476076212733424507e-03 4.436556942863005906e-03 -2.256282011432281243e-02 -2.034663205499730523e-02 -3.617964627720227783e-02 -3.984455168117331803e-02 -6.425828688646181841e-02 1.540783359801655393e-02 4.631313022135488677e-02 4.734210730328401034e-02 3.226546908878947378e-02 2.689587992768350741e-02 -3.485026552834285390e-02 4.832573511904048047e-02 6.223752506614344676e-02 -5.824491810063853886e-03 -8.815611565256120663e-02 -3.146210177060861785e-02 8.790740709867270880e-03 -3.596897604214715355e-02 1.638400599879796804e-02 3.113813036954524507e-02 -4.604019837793844883e-02 3.062970007150989105e-02 5.277255033575453964e-06 2.919763480942974554e-02 5.869385173025024049e-02 -4.575650503046070627e-02 -3.072862581202506771e-02 2.652185866193940839e-03 1.425004420469311306e-02 4.184895238674624790e-02 -1.803303701257817984e-02 -7.021288787311763188e-03 -3.531064536040825347e-02 8.422071985220788704e-02 -1.978000406489826765e-02 3.586748405933799094e-02 5.387985212333597403e-03 -1.889706550247444508e-02 -4.403390839794014272e-02 -7.894052398026933648e-02 2.121140737721891739e-02 1.804855094319316637e-03 -3.442343393430072340e-02 -6.838736667879048714e-02 6.243830176894678979e-02 -2.850425726409643035e-02 -5.581015391514469043e-02 -3.252473538080803694e-02 5.311623632464619604e-02 -1.341865671789648461e-02 2.562081538279474893e-02 3.603619151196536807e-02 -7.094595584269552946e-02 2.186375641507952092e-02 3.994017407076753956e-02 2.269779362887187554e-02 4.277798627131293267e-03 4.805657161717046683e-02 7.929279755633217297e-02 3.077845267976300498e-03 2.168106701403599637e-02 -2.896148755915821382e-02 -8.076500144805339940e-03 8.604391553291774672e-03 -4.313614559054390618e-02 9.417607038643411102e-03 -3.800098205241837085e-02 -1.368419879706042792e-02 3.594772183632658630e-02 -1.936493186991615142e-02 4.125490596827963152e-02 -3.684802723066060715e-02 -5.441709525685609061e-03 -4.580883162280562082e-02 1.985793876740163041e-02 -3.327673245544323505e-02 -7.601874444503130268e-02 1.901837440278562885e-02 4.086409423565229293e-02 7.540476927472954116e-02 -5.206082784159250798e-02 -5.575301976112312027e-03 -3.526041645135836317e-02 -1.411304097154391646e-01 1.445616272300733474e-01 1.821735623370124638e-02 1.645929826423133402e-01 -7.699010733664612971e-02 2.404021606237590782e-04 9.137828084446389387e-02 -1.125683185724393048e-01 -3.282237769699344887e-02 1.384144599973938239e-01 -1.495444559327124834e-01 -2.877893292703662814e-02 -1.229824442858880457e-01 1.182522323523944596e-01 2.408265903391371143e-02 1.148134083882575325e-02 7.425930616019917052e-02 -1.025332938471622407e-01 -6.231581823637378365e-02 -1.008375406740817104e-01 6.055347099328111521e-02 -5.690633193282246954e-02 -1.062962131203228355e-01 6.710277645694202875e-02 -1.605013106648455201e-01 -1.055074000600285111e-01 2.529539201988834779e-02 9.214955650103850981e-02 1.495670083685021745e-01 -1.877494506938196667e-02 7.361576874882252985e-02 9.542303636964221845e-04 6.402970842454995537e-02 -2.273540899785305228e-02 -1.644722132584068575e-02 8.458578421554743820e-02 -2.744899556139326902e-02 -7.651440752221805308e-02 5.735190571545597388e-02 1.055238593787651002e-01 -7.701458311993255451e-03 1.363996261383411401e-01 1.244254671232846582e-02 -4.519786148862738051e-02 -6.920771594386264380e-02 1.548446415557898706e-02 -5.039288335258976237e-02 -4.207427369815040091e-02 2.795370909701440712e-02 -5.938035017810632671e-02 -3.975090768076824932e-02 -8.355820236717174943e-02 6.937946764459254623e-02 -4.024661168310518858e-03 -4.683937514263132595e-02 -2.080929632817395472e-02 -6.577420118537431748e-02 4.027205419785932078e-02 -1.418601053950992695e-02 -1.443811347294355653e-02 -1.125070698530029473e-01 8.809255220032671807e-02 -7.894517586542136242e-03 -7.610158612901320174e-02 -8.535782121196129613e-02 8.100996098996243733e-02 -1.227909446779831548e-01 -4.631669097159904491e-02 -2.909243971429467321e-02 -3.252563600534616375e-03 1.921130546609820314e-02 1.610152574367601118e-03 2.516810633915470344e-02 6.345986936316755367e-02 -1.700136126051992810e-02 -6.436955702374860810e-02 5.546108979494517727e-02 3.044387040642835066e-02 7.104827176267322630e-02 -9.076178437664112267e-03 -7.574871654691588130e-02 -2.537894997631905472e-02 -4.541379532957734270e-03 3.400640498548953422e-02 3.935268853344734558e-02 -3.481971702819355169e-02 -1.404121384588984979e-02 -1.542908823337079023e-02 4.086260578335669698e-03 6.850588310337148157e-02 8.708616442460050122e-02 -3.043482652540881184e-02 2.991002704732324564e-03 4.150178182141300159e-02 -9.896782689553435854e-04 -8.213462417015002237e-02 -7.847866078070650855e-03 -4.056171400591922910e-02 4.082469170640096873e-02 -3.990069342765120014e-02 7.445713729257204261e-02 2.021976789312569522e-01 -6.889679967730791277e-02 1.730549618634702068e-04 2.980710101980864335e-02 -3.967121385793390131e-02 -8.639365701482086546e-02 -2.953968816090593932e-02 8.149531638192969440e-02 9.310139639958141212e-04 2.463887314403856790e-02 6.766185095683674433e-02 -3.124824501882571097e-03 5.621481966463331287e-02 6.134897191971772079e-03 5.413097286002192809e-02 6.497686068648982072e-02 2.912036265083399120e-02 -3.197793173095957175e-02 -1.515425937794392421e-02 -2.205070643505154318e-02 -4.727139266308500593e-02 -1.676807545330137594e-02 -7.031900488402559324e-02 1.162250162953948479e-01 -7.198619957502679079e-02 1.794723141603794467e-03 -6.366208136865882106e-02 -7.676060270513287986e-02 1.031906874091460119e-02 -8.804286488348930795e-02 1.653070099626513870e-02 2.828582998179137234e-02 -2.019019223471081939e-02 1.968678431757240124e-02 -1.834635466337755302e-02 5.461122374715544209e-02 -7.200547854412806849e-03 -3.635622375738191414e-02 1.139338864769762483e-01 -5.560254942315740606e-02 -5.848159674372597344e-02 -6.410520283190153379e-02 1.238123267780110170e-01 5.557519916655934838e-02 4.250847927153569156e-02 -4.237715628282152924e-02 6.482385441814980664e-02 1.078236594736012161e-01 8.999389686026158797e-02 7.008432486752010082e-02 2.596589203118121122e-02 -4.024988719100891510e-02 2.355550547720692070e-02 -6.548067126932065329e-02 4.610948724321749931e-02 -1.195635620921370670e-02 3.062154709917882817e-03 1.208562268693361488e-02 -9.958333536401508049e-03 7.691697572140578087e-02 -4.114303411332775884e-02 1.601548696254113599e-02 2.435809852620585830e-02 -2.813608482963332602e-02 -6.417654685964849226e-02 -3.635387549645559963e-02 3.047384732126131451e-02 2.500519397856655265e-02 -2.431602867450342528e-02 1.405967341708140930e-02
-2.566765914734690096e-02 -2.903867454048797772e-02 -1.515189076740041697e-02 4.730210573438666660e-02 -1.153342021580737592e-01 -1.955869202307441296e-02 9.656873636675795958e-02 3.896058607326557954e-02 -3.244842269441248345e-02 1.480317940038586855e-01 -8.444210342534086422e-02 -8.875229482725045804e-02 -5.074502648488526946e-02 -6.575655684529382872e-02 -6.789536397943479740e-02 -6.534930324380690270e-02 1.025101321684112471e-01 3.427296665542423071e-02 2.002861564047570681e-02 1.750693807294635418e-01 -9.085428912727120873e-03 7.687849686085952011e-03 -3.485871250989679843e-02 -3.037114838718667914e-02 -5.504498748254728346e-02 -6.039596879151861580e-02 -9.745820352735895531e-02 2.210724324400753851e-02 6.850300413962917556e-02 7.076818285780854534e-02 4.801179538506955558e-02 4.084036007685931668e-02 -5.084157490376049054e-02 7.136394226273262698e-02 9.186725539039060362e-02 -8.141769203195892493e-03 -1.325421826329317432e-01 -4.606624070264555421e-02 1.269434174837305758e-02 -5.302120827303960504e-02 2.520894152006431313e-02 4.598507934868584224e-02 -6.768752480854768605e-02 4.631271201297339213e-02 -2.581555647899111666e-04 4.428229286044729068e-02 8.785256776559081937e-02 -6.841099109071471784e-02 -4.598749386954666812e-02 3.047082183401551760e-03 2.007937276824165590e-02 6.198644160332703740e-02 -2.756347664213096987e-02 -1.172093510587046521e-02 -5.360438662652518976e-02 1.261734059030014954e-01 -2.995364479041611946e-02 5.321390459616642810e-02 8.157868327172506512e-03 -2.863837563456789886e-02 -6.486252074779724763e-02 -1.181622488033794022e-01 3.276174825875177027e-02 3.150622407174165102e-03 -5.129355458952356700e-02 -1.024143570014428017e-01 9.378468248290275366e-02 -4.115094694026327771e-02 -8.293558554987567888e-02 -4.834887440229179018e-02 7.983002117902843198e-02 -1.992536779051476761e-02 3.763208702699071678e-02 5.495693626648345126e-02 -1.071175429992430039e-01 3.207796268022422570e-02 5.990598983295630786e-02 3.355139862092004766e-02 5.039873793702686310e-03 7.213798877027972900e-02 1.182098386866446277e-01 4.116816032842339664e-03 3.236659181492232418e-02 -4.352770314452549666e-02 -1.096385938428968629e-02 1.310116343548449469e-02 -6.461837737082422317e-02 1.434379003384247779e-02 -5.642581791740758357e-02 -2.039208828974133775e-02 5.428602688213735733e-02 -2.904681911013791765e-02 6.164799248097854040e-02 -5.432792550867561465e-02 -7.771248537366427962e-03 -6.881835315592979563e-02 2.998267085851181318e-02 -4.913323894279073012e-02 -1.140118130247071287e-01 2.871542203493713391e-02 6.112519447558724395e-02 1.120880819698378272e-01 -7.759785105782299186e-02 -8.036147340270556952e-03 -5.334452080704615157e-02 -2.107925971292748668e-01 2.171989425215031244e-01 2.778760617678303207e-02 2.463075021660262043e-01 -1.142880549690267478e-01 -6.667180594881439934e-05 1.363768439996757287e-01 -1.670838100868069498e-01 -4.910134759417430356e-02 2.081426276139776987e-01 -2.232136398914798814e-01 -4.285807671076404674e-02 -1.839029295602761793e-01 1.779930421181970257e-01 3.601377299947653571e-02 1.774478670118963264e-02 1.120390275126799395e-01 -1.530271163550507296e-01 -9.208000127010269875e-02 -1.488618627815831985e-01 9.067459631172873624e-02 -8.446552536965330760e-02 -1.578212377167421410e-01 1.007044494279374230e-01 -2.404597776199126069e-01 -1.567433244101296974e-01 3.717052836378546138e-02 1.366311520860567508e-01 2.243734101705920914e-01 -2.906319626359171737e-02 1.083694650839193141e-01 7.312109444876603234e-04 9.569798178112143283e-02 -3.568917682521090262e-02 -2.519725194897346615e-02 1.262820995104166899e-01 -4.204855960187709601e-02 -1.144946123817755790e-01 8.577081791585262904e-02 1.584189767493537349e-01 -1.122417091193775480e-02 2.072204104836860017e-01 1.887782653345791706e-02 -6.836661331033555555e-02 -1.023058107628678215e-01 2.340847459843874157e-02 -7.615887666274490098e-02 -6.191207320420676063e-02 4.221299357463573210e-02 -8.980151741367267682e-02 -5.847440532976459771e-02 -1.261445719981881264e-01 1.037029708006440704e-01 -5.768765163766743573e-03 -7.138397975833578324e-02 -3.108861728221243639e-02 -9.790640875009984367e-02 5.908724167739227290e-02 -2.138672369301182138e-02 -2.145079927732772979e-02 -1.695114066998054947e-01 1.311241698092120156e-01 -1.203374935330048419e-02 -1.137496253353621201e-01 -1.285625021025992576e-01 1.204171458812402506e-01 -1.822683619043765635e-01 -6.971732231157078130e-02 -4.315366714891966105e-02 -3.985979896575187094e-03 2.809208409821371821e-02 2.490218721917073202e-03 3.837006843666848632e-02 9.422912716747479378e-02 -2.535987739365550692e-02 -9.741696034211996813e-02 8.397580447829482153e-02 4.615411564449067167e-02 1.051787527324972021e-01 -1.222313656450578490e-02 -1.123078464095971091e-01 -3.853475253276175683e-02 -6.227347477617280191e-03 5.190642211356726737e-02 5.855215180482428727e-02 -5.157034130444668879e-02 -1.992564495236453376e-02 -2.314613403330485764e-02 6.363742625980015576e-03 1.029193121775625330e-01 1.297672791672174197e-01 -4.470356885893116833e-02 4.522445667142624935e-03 6.202704694243386940e-02 -9.252187655228829351e-04 -1.224486366556893496e-01 -1.175964408969901002e-02 -6.008421593111501480e-02 6.161333043933553411e-02 -6.033968022329033731e-02 1.112987550499112549e-01 3.025510302145588692e-01 -1.029669091637898798e-01 1.164522385275587992e-03 4.440174804971121214e-02 -5.919459212315344304e-02 -1.291204084446904432e-01 -4.473281619180492080e-02 1.224094613379529545e-01 1.637181968933988955e-03 3.690738154018508022e-02 1.019325173536339002e-01 -4.601093802908727895e-03 8.406099480001386071e-02 8.887178438030395727e-03 8.134712065625225585e-02 9.686720120013657398e-02 4.368629687506414561e-02 -4.776073556188536323e-02 -2.311486151659617946e-02 -3.266538467814454616e-02 -7.086458733880530991e-02 -2.568168368954169486e-02 -1.046295134283850431e-01 1.739276444489142870e-01 -1.074229008973013877e-01 2.650452530896934243e-03 -9.516531328840813209e-02 -1.149710307951554850e-01 1.571487473744949750e-02 -1.321317610009379584e-01 2.486364122121438938e-02 4.211835134170568984e-02 -3.029617898262319114e-02 2.935743551997514397e-02 -2.726839643931765200e-02 8.096334977659136456e-02 -1.097880542598010309e-02 -5.382844808268451992e-02 1.695918138678233489e-01 -8.393159991344906201e-02 -8.785131319689405693e-02 -9.799437645440770006e-02 1.853323630397374633e-01 8.350245483965891558e-02 6.243449847042003426e-02 -6.399262480550271803e-02 9.682775564941066559e-02 1.616004553618669293e-01 1.357301156476898585e-01 1.045900143084289163e-01 3.769934131664365307e-02 -5.974778720801162540e-02 3.503682311481953054e-02 -9.816878289232428001e-02 6.880681600292620770e-02 -1.835563341357781403e-02 4.294427365511450066e-03 1.830309527344192375e-02 -1.446641411973263042e-02 1.149743046228821064e-01 -6.258678367675644949e-02 2.448675051668791278e-02 3.633114410326023641e-02 -4.254877144268236905e-02 -9.621162308333125468e-02 -5.534177940530017603e-02 4.523593922895919467e-02 3.801840756495817458e-02 -3.686409208545275012e-02 2.023765939875435058e-02