9.583925300267745473e-02 -5.635664659501687934e-03 9.068545704879069080e-03 -5.635664659501687934e-03 7.718872178389650507e-02 -2.754798473067268660e-02 9.068545704879070815e-03 -2.754798473067269007e-02 1.023025461655575480e-01
-2.878486718058114596e-02 -6.507737659739275260e-02 4.243680187727896791e-02 -6.507737659739276648e-02 7.846083557412536491e-03 -3.446238301848147945e-02 4.243680187727896791e-02 -3.446238301848147945e-02 1.179919606120341663e-01
-1.392288185549040158e-01 -1.267942879183181770e-01 7.436003630691612187e-02 -1.267942879183182048e-01 -4.773239771696323464e-02 -4.117257181341059391e-02 7.436003630691613575e-02 -4.117257181341059391e-02 1.444086236760636355e-01
-1.522456659253051126e-01 -1.925284410373675203e-01 1.034443929046940797e-01 -1.925284410373675481e-01 -9.272802279119569599e-03 -4.656394552559378619e-02 1.034443929046940935e-01 -4.656394552559378619e-02 2.635823169272912825e-01
-1.393155469144906067e-01 -2.603685765657876017e-01 1.295230299509680105e-01 -2.603685765657876572e-01 5.284030117519671055e-02 -5.038296250787388519e-02 1.295230299509680383e-01 -5.038296250787388519e-02 4.028613951177350549e-01
-1.336949784682928966e-01 -3.293778856993254678e-01 1.566708226630320333e-01 -3.293778856993254678e-01 1.052242645151552913e-01 -5.308126151210077609e-02 1.566708226630320333e-01 -5.308126151210078303e-02 5.294477922874794018e-01
-1.348547293355361887e-01 -4.008928115257054947e-01 1.830410368951092270e-01 -4.008928115257054947e-01 1.494965557369731801e-01 -5.463266964969235723e-02 1.830410368951092270e-01 -5.463266964969235723e-02 6.442025983074670670e-01
9.000848791182545355e-03 -4.742953411073748682e-01 2.045367733612009076e-01 -4.742953411073748682e-01 3.346116111210181709e-01 -5.559401340673433833e-02 2.045367733612009076e-01 -5.559401340673433140e-02 8.987014714157114392e-01
2.648474944329068381e-02 -5.488875515288640372e-01 2.275006262133352497e-01 -5.488875515288640372e-01 3.926284197503404072e-01 -5.452432039755274185e-02 2.275006262133352497e-01 -5.452432039755273491e-02 1.020786171728151004e+00
1.455283318353221556e-01 -6.230262243716527815e-01 2.467610441358735474e-01 -6.230262243716527815e-01 5.503218616460943124e-01 -5.294495762387418925e-02 2.467610441358735474e-01 -5.294495762387419618e-02 1.241207581064562859e+00
2.742784918772274150e-01 -6.988996301052918803e-01 2.642063779375711241e-01 -6.988996301052917692e-01 7.146629404130083740e-01 -4.977018551091878101e-02 2.642063779375710686e-01 -4.977018551091878101e-02 1.465262019698556184e+00
4.321527219455594815e-01 -7.732203444259150293e-01 2.803373977096540459e-01 -7.732203444259149183e-01 9.068991431654991331e-01 -4.611312603935942972e-02 2.803373977096540459e-01 -4.611312603935942972e-02 1.715427288455181776e+00
5.830289949652025516e-01 -8.466591929108957526e-01 2.945132925038317917e-01 -8.466591929108957526e-01 1.090370160086476581e+00 -4.115045061406365223e-02 2.945132925038317917e-01 -4.115045061406365223e-02 1.954167781402540660e+00
7.827907967565717051e-01 -9.187061168238731534e-01 3.064191823705459394e-01 -9.187061168238730424e-01 1.320800543824265594e+00 -3.587138301248229272e-02 3.064191823705459394e-01 -3.587138301248229966e-02 2.238817569144842867e+00
9.463156517703107395e-01 -9.891156602304299605e-01 3.169592739461574160e-01 -9.891156602304298495e-01 1.514213779416988093e+00 -2.911439851165887813e-02 3.169592739461574160e-01 -2.911439851165888507e-02 2.483728378571733675e+00
1.142164939070858143e+00 -1.056539447875358251e+00 3.254011913436258840e-01 -1.056539447875358473e+00 1.738499655459875060e+00 -2.194642925880933501e-02 3.254011913436258840e-01 -2.194642925880933154e-02 2.758940002347967546e+00
1.332972227794631870e+00 -1.121247144540173712e+00 3.320285900340799734e-01 -1.121247144540173268e+00 1.956949007659686712e+00 -1.391767968447834951e-02 3.320285900340799734e-01 -1.391767968447834951e-02 3.026934901106324016e+00
1.532153226239358457e+00 -1.182128616863836745e+00 3.372845489101723992e-01 -1.182128616863836301e+00 2.182350655646137394e+00 -5.339150757798599017e-03 3.372845489101723437e-01 -5.339150757798596415e-03 3.301753319753863103e+00
1.718095845541536271e+00 -1.239152436173533323e+00 3.405312780307521714e-01 -1.239152436173533323e+00 2.394329752274474199e+00 3.875417914755192525e-03 3.405312780307521714e-01 3.875417914755191658e-03 3.561795869043706819e+00
1.901174080580517955e+00 -1.291561595885766245e+00 3.421215097039286834e-01 -1.291561595885766467e+00 2.602514317884211614e+00 1.355383317908760883e-02 3.421215097039287945e-01 1.355383317908761057e-02 3.817720577672923721e+00
2.079945463906144099e+00 -1.339177212909350878e+00 3.419801281524511016e-01 -1.339177212909350878e+00 2.806128642684021290e+00 2.367466204744581720e-02 3.419801281524510461e-01 2.367466204744581720e-02 4.068710112205971896e+00
2.247077486493243903e+00 -1.381409335362059343e+00 3.404797102094296313e-01 -1.381409335362059565e+00 2.997724208016278702e+00 3.417457095369400705e-02 3.404797102094296313e-01 3.417457095369400705e-02 4.307236575966381764e+00
2.397508779370202348e+00 -1.417822416722378298e+00 3.374601812428103531e-01 -1.417822416722378298e+00 3.172686827187214398e+00 4.505848789039105379e-02 3.374601812428102976e-01 4.505848789039106073e-02 4.528366263187620255e+00
2.538952018561485779e+00 -1.448207830692069153e+00 3.328860711850326060e-01 -1.448207830692069376e+00 3.338155207371133582e+00 5.626433176170785727e-02 3.328860711850326060e-01 5.626433176170785727e-02 4.739619088537248004e+00
2.660416063769729611e+00 -1.472414240047252854e+00 3.269587944063974683e-01 -1.472414240047253076e+00 3.483899973962411245e+00 6.765228189252139868e-02 3.269587944063974683e-01 6.765228189252139868e-02 4.930231818574662306e+00
2.766696360755874551e+00 -1.490134371421428350e+00 3.198069494321267303e-01 -1.490134371421428350e+00 3.613887598947273183e+00 7.951294268114475483e-02 3.198069494321267858e-01 7.951294268114476871e-02 5.104187522162418666e+00
2.854174043886297696e+00 -1.501232480016810866e+00 3.112723431189920453e-01 -1.501232480016810866e+00 3.725399881126667090e+00 9.140786095373444609e-02 3.112723431189920453e-01 9.140786095373443221e-02 5.258203885266259370e+00
2.922788380120938001e+00 -1.505657933515273550e+00 3.017336301557200229e-01 -1.505657933515273550e+00 3.817654032568899680e+00 1.033785372689759868e-01 3.017336301557200229e-01 1.033785372689759868e-01 5.391232432477048420e+00
2.972233731885436381e+00 -1.503397937596930634e+00 2.910525600604191854e-01 -1.503397937596930634e+00 3.890788641300586548e+00 1.154102092450930983e-01 2.910525600604192409e-01 1.154102092450930983e-01 5.503121415417545848e+00
3.003079965714043453e+00 -1.494512420876426440e+00 2.795174335091546447e-01 -1.494512420876426662e+00 3.944471462510644955e+00 1.276415946360316689e-01 2.795174335091545892e-01 1.276415946360316689e-01 5.593307484049923950e+00
3.014959244490858836e+00 -1.479051939910517310e+00 2.669835779842923418e-01 -1.479051939910517088e+00 3.979054768425119182e+00 1.398426312180913456e-01 2.669835779842923418e-01 1.398426312180913456e-01 5.661584430794484923e+00
3.009370119144418432e+00 -1.457040894816460153e+00 2.537650923609177100e-01 -1.457040894816460375e+00 3.994886372235543437e+00 1.523243498511330785e-01 2.537650923609177100e-01 1.523243498511330785e-01 5.707658298818042653e+00
2.985738142731168221e+00 -1.428926243753138259e+00 2.397203929152939006e-01 -1.428926243753137593e+00 3.992648993111882483e+00 1.646502737405083627e-01 2.397203929152939006e-01 1.646502737405083350e-01 5.731905943171335949e+00
2.946748274821817670e+00 -1.394862063599799251e+00 2.253492878947588873e-01 -1.394862063599799473e+00 3.973127308402843560e+00 1.772848220988095524e-01 2.253492878947588873e-01 1.772848220988095524e-01 5.734607067748354048e+00
2.892919875285939302e+00 -1.355282246068876928e+00 2.102677236286254747e-01 -1.355282246068876706e+00 3.938265441437321268e+00 1.897977755815930256e-01 2.102677236286254747e-01 1.897977755815930256e-01 5.717290093802620099e+00
2.826376629542750152e+00 -1.310277840707777086e+00 1.950364381465194696e-01 -1.310277840707776864e+00 3.888121042397149729e+00 2.027567693665403292e-01 1.950364381465194696e-01 2.027567693665403570e-01 5.679194415616164449e+00
2.747638276277213798e+00 -1.260638172721415984e+00 1.791086387019905635e-01 -1.260638172721416206e+00 3.825357010045859596e+00 2.155457757594654022e-01 1.791086387019905635e-01 2.155457757594654022e-01 5.622903479948911709e+00
2.660740784796254754e+00 -1.206230677403342444e+00 1.630913256207358608e-01 -1.206230677403342666e+00 3.751113569594664021e+00 2.288918203931249451e-01 1.630913256207358608e-01 2.288918203931248896e-01 5.548937872594415843e+00
2.564952008872897427e+00 -1.148281007571921641e+00 1.466675041847977645e-01 -1.148281007571921197e+00 3.667005920447826472e+00 2.422285378605245620e-01 1.466675041847977645e-01 2.422285378605245620e-01 5.458715429747012848e+00
2.465000768826317135e+00 -1.086407647175760660e+00 1.305769270956929629e-01 -1.086407647175760882e+00 3.575116839007737912e+00 2.561030792312878890e-01 1.305769270956929351e-01 2.561030792312878890e-01 5.354011307490710969e+00
2.360639880692180004e+00 -1.022037413642970183e+00 1.143290440866618629e-01 -1.022037413642970405e+00 3.477483804118196797e+00 2.699903651080122757e-01 1.143290440866618490e-01 2.699903651080122757e-01 5.236444962665446567e+00
2.253859879002086508e+00 -9.548013560799937238e-01 9.848908435400785533e-02 -9.548013560799937238e-01 3.372857351654094060e+00 2.847358659337069775e-01 9.848908435400785533e-02 2.847358659337070330e-01 5.104713963301168889e+00
2.148952029495143190e+00 -8.861235941497020985e-01 8.237135219562488619e-02 -8.861235941497023205e-01 3.269399202547507155e+00 2.993094204688758753e-01 8.237135219562487232e-02 2.993094204688758198e-01 4.967094118240382272e+00
2.044000329832381002e+00 -8.155755786785213735e-01 6.704301563884652870e-02 -8.155755786785212624e-01 3.160879524728431367e+00 3.150973656423666225e-01 6.704301563884652870e-02 3.150973656423666225e-01 4.817122000460146936e+00
1.944112319733715788e+00 -7.446813478065876790e-01 5.143337699956825049e-02 -7.446813478065876790e-01 3.056968854670944147e+00 3.306885439114872205e-01 5.143337699956824355e-02 3.306885439114872205e-01 4.664844189577244116e+00
1.849119036165057350e+00 -6.729088712629645030e-01 3.680351361745436145e-02 -6.729088712629645030e-01 2.953293692686906002e+00 3.471637988476536929e-01 3.680351361745436145e-02 3.471637988476536374e-01 4.505370887968158655e+00
1.758160775452413782e+00 -6.019593365470243818e-01 2.192077655518970616e-02 -6.019593365470242707e-01 2.852548342625873534e+00 3.638473632593245410e-01 2.192077655518970616e-02 3.638473632593245410e-01 4.342044496543491228e+00
1.677332118215819401e+00 -5.306911479726110770e-01 8.145640248441912007e-03 -5.306911479726109659e-01 2.756535022860916673e+00 3.815378861384240428e-01 8.145640248441910272e-03 3.815378861384240428e-01 4.177613294848762315e+00
1.605791214314518323e+00 -4.612705646410287796e-01 -5.232128125283300180e-03 -4.612705646410287796e-01 2.668575528901200755e+00 3.991868871084702786e-01 -5.232128125283300180e-03 3.991868871084702231e-01 4.015855479390807226e+00
1.537477663835284725e+00 -3.923318096438212499e-01 -1.796312758028366374e-02 -3.923318096438212499e-01 2.580322052855467341e+00 4.180982641735609961e-01 -1.796312758028366721e-02 4.180982641735610517e-01 3.846999128402980528e+00
1.486422374090096366e+00 -3.256994873099298138e-01 -3.049174173448112105e-02 -3.256994873099298138e-01 2.508283654998507028e+00 4.366885313797626567e-01 -3.049174173448112105e-02 4.366885313797626567e-01 3.690694156314604957e+00
1.441485036350310445e+00 -2.614986789372249487e-01 -4.211792300968296432e-02 -2.614986789372250042e-01 2.439656881708004210e+00 4.559348432350244784e-01 -4.211792300968297126e-02 4.559348432350244784e-01 3.533460221239284937e+00
1.407722537043163635e+00 -1.992873482988415379e-01 -5.301955570221858483e-02 -1.992873482988415379e-01 2.379778355686949176e+00 4.755606680448482004e-01 -5.301955570221859176e-02 4.755606680448482004e-01 3.381550610042745042e+00
1.383894872373231166e+00 -1.394481595781612016e-01 -6.334489152864669625e-02 -1.394481595781612016e-01 2.328057565408407914e+00 4.955267278017010946e-01 -6.334489152864668238e-02 4.955267278017010391e-01 3.235118683746333712e+00
1.370946809591550686e+00 -8.236998592944896891e-02 -7.288884427392190724e-02 -8.236998592944896891e-02 2.285753258394128462e+00 5.155381445192779299e-01 -7.288884427392189336e-02 5.155381445192780410e-01 3.096271629954235660e+00
1.367284535175994797e+00 -2.820544765460442430e-02 -8.171822740120268658e-02 -2.820544765460442777e-02 2.251535102915702691e+00 5.357770610385694798e-01 -8.171822740120270046e-02 5.357770610385695909e-01 2.964447607911174565e+00
1.373948720843587212e+00 2.278854355214031749e-02 -8.977315699198394616e-02 2.278854355214031055e-02 2.226489326459822227e+00 5.560186411122766126e-01 -8.977315699198396004e-02 5.560186411122766126e-01 2.842163079494735456e+00
1.388804090451276618e+00 7.095167882283509586e-02 -9.697031829104886536e-02 7.095167882283506811e-02 2.208461474446132833e+00 5.762145143411695480e-01 -9.697031829104886536e-02 5.762145143411695480e-01 2.727629823684590171e+00
1.412404146077892442e+00 1.161078965583883377e-01 -1.036233762536013236e-01 1.161078965583883515e-01 2.198919087000968720e+00 5.961101680634334210e-01 -1.036233762536013236e-01 5.961101680634333100e-01 2.623227595718302219e+00
1.443308759203716374e+00 1.583352790800917342e-01 -1.093854944389825029e-01 1.583352790800917065e-01 2.195762513557101947e+00 6.157079019575458778e-01 -1.093854944389825168e-01 6.157079019575458778e-01 2.527721136197718099e+00
1.481461850875894104e+00 1.974988430424541586e-01 -1.144798306359064571e-01 1.974988430424541586e-01 2.200008125373774437e+00 6.345659649369971289e-01 -1.144798306359064571e-01 6.345659649369972399e-01 2.442963891023924639e+00
1.524541224688058083e+00 2.343492010076194954e-01 -1.184991653523131128e-01 2.343492010076194954e-01 2.208887139573992631e+00 6.528924550881620714e-01 -1.184991653523130989e-01 6.528924550881620714e-01 2.366769930323019633e+00
1.573309245870236461e+00 2.679479779028903219e-01 -1.220815663344232554e-01 2.679479779028903219e-01 2.223879264656770438e+00 6.706146976602724852e-01 -1.220815663344232416e-01 6.706146976602725962e-01 2.301699940409756895e+00
1.625672143537014502e+00 2.995109178720345988e-01 -1.245592437795075974e-01 2.995109178720345433e-01 2.241959736119479185e+00 6.876966164830632389e-01 -1.245592437795075835e-01 6.876966164830632389e-01 2.244888647768209289e+00
1.682287633755844336e+00 3.282913147028861944e-01 -1.265827066124858846e-01 3.282913147028861389e-01 2.265327779423655485e+00 7.036415557255513153e-01 -1.265827066124858846e-01 7.036415557255513153e-01 2.199279847026177404e+00
1.740887716388268558e+00 3.558105198308991746e-01 -1.274788104183131876e-01 3.558105198308991746e-01 2.290453923417981041e+00 7.184612054581324125e-01 -1.274788104183132431e-01 7.184612054581323015e-01 2.161488243155939237e+00
1.802637333822032950e+00 3.806017233182011905e-01 -1.281184216702417056e-01 3.806017233182011905e-01 2.319806738307777838e+00 7.319798998230134801e-01 -1.281184216702416778e-01 7.319798998230133691e-01 2.135108719993976667e+00
1.864755918700675474e+00 4.044711152846868218e-01 -1.275738272348464764e-01 4.044711152846868218e-01 2.349477153305615573e+00 7.443533942128141012e-01 -1.275738272348464486e-01 7.443533942128142122e-01 2.115825456882528322e+00
1.929080777473217045e+00 4.258556552915970239e-01 -1.267585464014194530e-01 4.258556552915970794e-01 2.382384879284685564e+00 7.556275857748878666e-01 -1.267585464014194807e-01 7.556275857748878666e-01 2.107516702032668832e+00
1.993598875738719967e+00 4.470112840771281459e-01 -1.248023075079029709e-01 4.470112840771282015e-01 2.415161073042164652e+00 7.655471207898498776e-01 -1.248023075079029709e-01 7.655471207898497665e-01 2.105931091401877620e+00
2.059614657970708862e+00 4.656453465183839624e-01 -1.229558382228500973e-01 4.656453465183839624e-01 2.450506993998688987e+00 7.738814488751848408e-01 -1.229558382228500973e-01 7.738814488751848408e-01 2.114547741943463066e+00
2.125282256302233552e+00 4.845507002176666633e-01 -1.198053903583443935e-01 4.845507002176665523e-01 2.484690476982451379e+00 7.808800569302556394e-01 -1.198053903583443935e-01 7.808800569302555283e-01 2.128431285561357633e+00
2.192377935401201849e+00 5.008653771326486703e-01 -1.168754148531312570e-01 5.008653771326486703e-01 2.521458395936317931e+00 7.865362179052571845e-01 -1.168754148531312570e-01 7.865362179052570735e-01 2.152627427897001677e+00
2.259996046703087735e+00 5.179863016911586682e-01 -1.128259215000512322e-01 5.179863016911587792e-01 2.557497174461341061e+00 7.912765836266953956e-01 -1.128259215000512322e-01 7.912765836266953956e-01 2.181950855126815192e+00
2.328874724476854841e+00 5.326552509653426082e-01 -1.091527014154330816e-01 5.326552509653426082e-01 2.595253219289009650e+00 7.943741840048090808e-01 -1.091527014154330955e-01 7.943741840048090808e-01 2.219939504233722882e+00
2.399225578955496818e+00 5.478521112612882993e-01 -1.044928180313943467e-01 5.478521112612882993e-01 2.633241031671622601e+00 7.962146231005049479e-01 -1.044928180313943328e-01 7.962146231005048369e-01 2.263015990960925095e+00
2.471598916192205397e+00 5.606743168101626651e-01 -1.002484909899513804e-01 5.606743168101627761e-01 2.673203423535496448e+00 7.965547679395864611e-01 -1.002484909899513804e-01 7.965547679395863501e-01 2.313738470100417111e+00
2.546218327613883226e+00 5.742537934180463877e-01 -9.534802388608117074e-02 5.742537934180464987e-01 2.713968579221359700e+00 7.960773439165088616e-01 -9.534802388608117074e-02 7.960773439165087506e-01 2.368820697794015384e+00
2.624273335725240575e+00 5.852234647742562412e-01 -9.117172707172616075e-02 5.852234647742563522e-01 2.757650808087219740e+00 7.942633889645704937e-01 -9.117172707172616075e-02 7.942633889645704937e-01 2.431307079119997105e+00
2.705565511536568213e+00 5.968129173701444135e-01 -8.642633552980248657e-02 5.968129173701444135e-01 2.802628322290368956e+00 7.918374786145859767e-01 -8.642633552980247269e-02 7.918374786145860877e-01 2.497522031899633177e+00
2.791248937355867987e+00 6.055642854909777384e-01 -8.272042099724935538e-02 6.055642854909777384e-01 2.851014889629971183e+00 7.882251119664389627e-01 -8.272042099724936925e-02 7.882251119664389627e-01 2.570539012577084836e+00
2.912843153168987786e+00 6.151754663296111758e-01 -7.894777308090081269e-02 6.151754663296111758e-01 2.933705339585363614e+00 7.836281349258462647e-01 -7.894777308090079881e-02 7.836281349258462647e-01 2.678509983941556705e+00
2.979468092369740084e+00 6.210616335155960677e-01 -7.573942393792530703e-02 6.210616335155959566e-01 2.959279601419146477e+00 7.795812349358959281e-01 -7.573942393792530703e-02 7.795812349358960391e-01 2.730088647075188835e+00
3.078783954356602237e+00 6.258306756293879891e-01 -7.324095150544064625e-02 6.258306756293878781e-01 3.015998057994773607e+00 7.745758262761734958e-01 -7.324095150544063237e-02 7.745758262761733848e-01 2.814324008106171338e+00
3.188946502638273728e+00 6.289002842820975436e-01 -7.178119640765767695e-02 6.289002842820975436e-01 3.081897099396834427e+00 7.687685507179212729e-01 -7.178119640765767695e-02 7.687685507179212729e-01 2.907625873865614885e+00
3.298899485955491429e+00 6.298940741904073271e-01 -7.064292916204993611e-02 6.298940741904073271e-01 3.145364420117723103e+00 7.631234297894905483e-01 -7.064292916204993611e-02 7.631234297894905483e-01 2.997754428334548749e+00
3.425644272957205860e+00 6.286344170080602201e-01 -7.117152618453700952e-02 6.286344170080601090e-01 3.223556964864336738e+00 7.571582246843637787e-01 -7.117152618453700952e-02 7.571582246843637787e-01 3.100852126407992682e+00
3.552378924225115142e+00 6.250480971865529645e-01 -7.252179065168409822e-02 6.250480971865530755e-01 3.299614819173015245e+00 7.513184000428885234e-01 -7.252179065168409822e-02 7.513184000428885234e-01 3.200217680209978877e+00
3.689205085856779753e+00 6.190427710835998409e-01 -7.536056120243496415e-02 6.190427710835997299e-01 3.383870152022207645e+00 7.454343808483627765e-01 -7.536056120243495027e-02 7.454343808483627765e-01 3.305113994415802559e+00
3.833339448626456480e+00 6.102246353355378350e-01 -7.938851034914526372e-02 6.102246353355378350e-01 3.473474147190028560e+00 7.397024993848331231e-01 -7.938851034914524984e-02 7.397024993848331231e-01 3.413078499334346816e+00
3.983593986045886659e+00 5.989035201119937701e-01 -8.500999828740726794e-02 5.989035201119935481e-01 3.567887087844585636e+00 7.340836243401652750e-01 -8.500999828740726794e-02 7.340836243401653860e-01 3.522179692538111695e+00
4.141163171568709167e+00 5.846445189055214930e-01 -9.200955147228681574e-02 5.846445189055214930e-01 3.667912583437144658e+00 7.288295693594333269e-01 -9.200955147228680187e-02 7.288295693594333269e-01 3.633642122320407175e+00
4.305090796211942461e+00 5.673013409084985970e-01 -1.004481076598847389e-01 5.673013409084987080e-01 3.772961043839941020e+00 7.239338650874721504e-01 -1.004481076598847528e-01 7.239338650874722614e-01 3.746974053227946300e+00
4.475280030827380351e+00 5.469438082658921729e-01 -1.102370953056054786e-01 5.469438082658921729e-01 3.882859802875517019e+00 7.194786738490696054e-01 -1.102370953056054925e-01 7.194786738490694944e-01 3.861557890708175123e+00
4.650988187560164633e+00 5.234172221952597681e-01 -1.217206726614422502e-01 5.234172221952597681e-01 3.997329823539224947e+00 7.151661925800522068e-01 -1.217206726614422779e-01 7.151661925800523179e-01 3.977299566883150117e+00
4.830892030436224616e+00 4.970902988621795360e-01 -1.345473765915211062e-01 4.970902988621795915e-01 4.115279177150892309e+00 7.114179199264830666e-01 -1.345473765915211062e-01 7.114179199264829556e-01 4.092670854682847192e+00
5.014978698612846841e+00 4.676293136359628844e-01 -1.487343757740967054e-01 4.676293136359628844e-01 4.236788318046195378e+00 7.078692273482037889e-01 -1.487343757740967054e-01 7.078692273482036779e-01 4.208622927896320753e+00
5.202007110947532098e+00 4.352496520723767026e-01 -1.642479011939547429e-01 4.352496520723765916e-01 4.360924155756591425e+00 7.049281189033178574e-01 -1.642479011939547429e-01 7.049281189033178574e-01 4.324024162260314164e+00
5.390944445220396730e+00 3.999009707293535998e-01 -1.811617145644571214e-01 3.999009707293535998e-01 4.486977513263087580e+00 7.021171493256872509e-01 -1.811617145644571214e-01 7.021171493256873619e-01 4.438509718552932526e+00
5.581695720242492165e+00 3.615220745241101152e-01 -1.990874383738167608e-01 3.615220745241101707e-01 4.614879562013354253e+00 6.995898723372937500e-01 -1.990874383738167608e-01 6.995898723372938610e-01 4.552146381060025782e+00
