2.535499999999999865e+00 1.032610999999999990e+01 3.174450000000000216e+00 2.437769999999999992e+00 1.029440999999999917e+01 8.250030000000000641e+00 2.684940000000000104e+00 5.306569999999999787e+00 2.806239999999999846e+00 2.653410000000000046e+00 5.267310000000000159e+00 8.268219999999999459e+00 6.113800000000000345e-01 2.923189999999999955e+00 2.407340000000000035e+00 3.740999999999999881e-02 2.623330000000000162e+00 7.465449999999999697e+00 2.992600000000000260e-01 7.904939999999999856e+00 2.434169999999999945e+00 1.010249999999999915e+01 7.494089999999999918e+00 7.811969999999999636e+00 7.850629999999999775e+00 2.732070000000000221e+00 4.717649999999999899e+00 8.138339999999999463e+00 2.571210000000000218e+00 1.072359999999999935e+01 7.544550000000000090e+00 7.967570000000000263e+00 4.992180000000000284e+00 7.894940000000000069e+00 7.788929999999999687e+00 3.679000000000000326e-02 5.382729999999999571e+00 1.513100000000000001e-01 1.054630000000000045e+01 5.353489999999999860e+00 3.823599999999999777e-01 5.361139999999999795e+00 5.542130000000000223e+00 5.184050000000000047e+00 1.065770000000000017e+01 5.271849999999999703e+00 5.127410000000000245e+00 5.632729999999999571e+00 4.799820000000000420e+00 2.578460000000000196e+00 2.199689999999999923e+00 5.201089999999999769e+00 2.567439999999999944e+00 7.803340000000000387e+00 5.061600000000000321e+00 8.273250000000000881e+00 2.525780000000000136e+00 5.406629999999999825e+00 7.672329999999999650e+00 7.990590000000000082e+00 7.875499999999999723e+00 2.971999999999999989e-02 2.704229999999999912e+00 7.868570000000000064e+00 4.617000000000000270e-02 8.022819999999999396e+00 7.509949999999999903e+00 5.275850000000000151e+00 2.663710000000000022e+00 7.845760000000000289e+00 4.964710000000000178e+00 8.101179999999999382e+00 3.371100000000000207e-01 2.667399999999999771e-01 1.976300000000000001e-01 1.024619999999999997e+01 1.016710999999999920e+01 5.571380000000000443e+00 3.112400000000000166e-01 5.225229999999999819e+00 1.217199999999999949e-01 1.017220000000000013e+01 5.059169999999999945e+00 5.376900000000000013e+00 2.553080000000000016e+00 2.578409999999999869e+00 5.277420000000000222e+00 2.731320000000000192e+00 2.826789999999999914e+00 1.035459999999999958e+01 2.567089999999999872e+00 7.600810000000000066e+00 5.332200000000000273e+00 2.879680000000000017e+00 7.734429999999999694e+00 1.040709999999999980e+01 9.491509999999999891e+00 3.704279999999999795e+00 7.694699999999999873e-01 9.208690000000000708e+00 3.506209999999999827e+00 6.141449999999999854e+00 9.263249999999999318e+00 8.936880000000000379e+00 7.625899999999999901e-01 9.077949999999999520e+00 8.778200000000000003e+00 6.132460000000000022e+00 3.702300000000000146e+00 1.235840000000000050e+00 4.340320000000000178e+00 3.750500000000000167e+00 1.322619999999999907e+00 9.365550000000000708e+00 3.681329999999999991e+00 5.956550000000000011e+00 4.571220000000000283e+00 4.240700000000000358e+00 6.524910000000000210e+00 9.466430000000000788e+00 3.579190000000000094e+00 3.752390000000000114e+00 3.533970000000000056e+00 3.876500000000000057e+00 3.815890000000000004e+00 8.939840000000000231e+00 3.188579999999999970e+00 8.445090000000000430e+00 3.369019999999999904e+00 4.074340000000000295e+00 9.092449999999999477e+00 9.006669999999999732e+00 9.456720000000000681e+00 1.474050000000000082e+00 1.444989999999999997e+00 9.149820000000000064e+00 1.090580000000000105e+00 7.163549999999999862e+00 9.396679999999999922e+00 6.401069999999999816e+00 1.350440000000000085e+00 8.948710000000000164e+00 6.027490000000000236e+00 6.891020000000000145e+00 9.056369999999999365e+00 3.729680000000000106e+00 3.165090000000000181e+00 8.825060000000000571e+00 3.386779999999999902e+00 8.671810000000000684e+00 9.121710000000000207e+00 8.817899999999999849e+00 3.290070000000000050e+00 8.934730000000000061e+00 8.769909999999999428e+00 9.009900000000000020e+00 4.128129999999999633e+00 3.497799999999999798e-01 1.637690000000000090e+00 3.920589999999999797e+00 1.173559999999999937e+00 6.975880000000000081e+00 3.997689999999999966e+00 6.569679999999999964e+00 1.455869999999999997e+00 3.683790000000000120e+00 6.546850000000000058e+00 7.039819999999999744e+00 1.245389999999999997e+00 1.389310000000000045e+00 3.607169999999999987e+00 1.251970000000000027e+00 1.578070000000000084e+00 8.929919999999999192e+00 1.189249999999999918e+00 6.374570000000000292e+00 3.588950000000000085e+00 1.679289999999999949e+00 6.858139999999999681e+00 8.963390000000000413e+00 6.493879999999999875e+00 1.662339999999999929e+00 1.034240000000000048e+00 6.467679999999999652e+00 1.761810000000000098e+00 6.246000000000000441e+00 6.878180000000000405e+00 6.470690000000000275e+00 1.071399999999999908e+00 6.320730000000000182e+00 6.709450000000000358e+00 6.383670000000000400e+00 6.391119999999999912e+00 1.454579999999999984e+00 3.574289999999999967e+00 6.462909999999999933e+00 1.193810000000000038e+00 9.009969999999999146e+00 6.376459999999999795e+00 6.911669999999999980e+00 3.537819999999999965e+00 6.806320000000000370e+00 6.395749999999999602e+00 9.283400000000000318e+00 5.755939999999999834e+00 4.318859999999999921e+00 1.842549999999999910e+00 6.298429999999999751e+00 4.229149999999999743e+00 7.270620000000000083e+00 6.691779999999999617e+00 9.150629999999999598e+00 1.641440000000000010e+00 6.561230000000000118e+00 9.346120000000000871e+00 6.804969999999999963e+00 8.776229999999999976e+00 8.485399999999999610e-01 4.560459999999999958e+00 8.822179999999999467e+00 9.558200000000000029e-01 9.739560000000000883e+00 8.636990000000000833e+00 6.300169999999999604e+00 4.478290000000000326e+00 9.412760000000000460e+00 6.266630000000000145e+00 9.303250000000000242e+00 6.661859999999999893e+00 4.319449999999999790e+00 4.416170000000000151e+00 6.833359999999999879e+00 3.990880000000000205e+00 1.008249999999999957e+01 6.647479999999999833e+00 9.295070000000000832e+00 4.098889999999999922e+00 6.505180000000000184e+00 8.884199999999999875e+00 9.542820000000000746e+00 1.714190000000000103e+00 1.714099999999999957e+00 8.275599999999999623e-01 1.284829999999999917e+00 1.346649999999999903e+00 6.187979999999999592e+00 1.284599999999999964e+00 6.977689999999999948e+00 7.269999999999999796e-01 1.191429999999999989e+00 6.261580000000000368e+00 6.449349999999999916e+00 1.257409999999999917e+00 3.747930000000000206e+00 4.286019999999999719e+00 1.321239999999999970e+00 4.215419999999999945e+00 9.467750000000000554e+00 1.056769999999999987e+00 8.804040000000000532e+00 4.519389999999999574e+00 1.482990000000000030e+00 9.351580000000000226e+00 9.761919999999999931e+00 1.712409999999999988e+00 4.406530000000000058e+00 1.294980000000000020e+00 1.607590000000000074e+00 3.859129999999999949e+00 7.110879999999999868e+00 1.374549999999999939e+00 9.488649999999999807e+00 1.871669999999999945e+00 1.288969999999999949e+00 8.966210000000000235e+00 7.073419999999999597e+00 4.018839999999999968e+00 3.423379999999999868e+00 8.467299999999999827e-01 4.210939999999999905e+00 3.548350000000000115e+00 6.204760000000000275e+00
2.882800000000000029e+00 1.169300000000000062e-01 2.890960000000000196e+00 2.755360000000000031e+00 1.168000000000000010e-01 7.996159999999999712e+00 2.923059999999999992e+00 5.333309999999999995e+00 2.854699999999999793e+00 2.667419999999999902e+00 5.057400000000000340e+00 8.074139999999999873e+00 2.419199999999999962e-01 2.646939999999999849e+00 2.482920000000000016e+00 2.102000000000000049e-02 2.756079999999999863e+00 7.654720000000000191e+00 2.068899999999999906e-01 7.919279999999999653e+00 2.485250000000000181e+00 1.014654999999999951e+01 7.565780000000000172e+00 7.733270000000000088e+00 7.780770000000000408e+00 2.710249999999999826e+00 5.035989999999999966e+00 7.809479999999999755e+00 2.619050000000000100e+00 1.051631000000000071e+01 7.487840000000000273e+00 7.854350000000000165e+00 5.105990000000000251e+00 7.882850000000000357e+00 7.730380000000000251e+00 8.219999999999999529e-02 5.405149999999999899e+00 1.005390000000000050e+01 1.058920999999999957e+01 5.216639999999999944e+00 1.017070000000000007e+01 5.290860000000000340e+00 5.156380000000000408e+00 4.950849999999999973e+00 4.435999999999999666e-02 5.330289999999999750e+00 5.116670000000000051e+00 5.431090000000000195e+00 5.124329999999999607e+00 2.562100000000000044e+00 2.260850000000000026e+00 5.201539999999999608e+00 2.557749999999999968e+00 7.615779999999999994e+00 5.129940000000000389e+00 7.684949999999999726e+00 2.664610000000000145e+00 5.285669999999999646e+00 7.633160000000000167e+00 7.601910000000000167e+00 7.910129999999999661e+00 2.100700000000000067e-01 2.600810000000000066e+00 7.988940000000000374e+00 1.023300000000000043e-01 8.057890000000000441e+00 7.934580000000000410e+00 5.108579999999999899e+00 2.770970000000000155e+00 7.571139999999999759e+00 5.094079999999999941e+00 8.176859999999999573e+00 6.087999999999999662e-02 1.379100000000000048e-01 1.048071000000000019e+01 1.003776000000000046e+01 1.024520000000000053e+01 5.428359999999999630e+00 9.983869999999999578e+00 5.148629999999999818e+00 1.048361000000000054e+01 1.017645000000000088e+01 5.205949999999999633e+00 5.134210000000000385e+00 2.804670000000000218e+00 2.426340000000000163e+00 5.168650000000000411e+00 2.735669999999999824e+00 2.445759999999999934e+00 1.049271000000000065e+01 2.585820000000000007e+00 7.791089999999999627e+00 5.226989999999999803e+00 2.580589999999999939e+00 7.952619999999999578e+00 1.023260999999999932e+01 9.118169999999999220e+00 3.628709999999999880e+00 1.270000000000000018e+00 8.844359999999999999e+00 3.940459999999999852e+00 6.397549999999999848e+00 9.056720000000000326e+00 9.173289999999999722e+00 1.366810000000000080e+00 8.846019999999999328e+00 8.898699999999999832e+00 6.208689999999999820e+00 4.527929999999999566e+00 1.336049999999999960e+00 4.124859999999999971e+00 4.135390000000000121e+00 1.401210000000000067e+00 9.101699999999999235e+00 4.275430000000000064e+00 6.677719999999999878e+00 4.168280000000000207e+00 3.833260000000000112e+00 6.141259999999999941e+00 9.728080000000000283e+00 4.176590000000000025e+00 3.805140000000000189e+00 3.788920000000000066e+00 4.064350000000000129e+00 3.762570000000000192e+00 9.087320000000000064e+00 4.173149999999999693e+00 9.010500000000000398e+00 3.973800000000000221e+00 3.986559999999999881e+00 8.952379999999999782e+00 9.112740000000000506e+00 8.699099999999999611e+00 1.300999999999999934e+00 1.200809999999999933e+00 8.568369999999999820e+00 1.346530000000000005e+00 6.511490000000000222e+00 8.955360000000000653e+00 6.163439999999999586e+00 1.457810000000000050e+00 8.392279999999999518e+00 6.467710000000000292e+00 6.800379999999999647e+00 9.133419999999999206e+00 4.028330000000000410e+00 3.854220000000000201e+00 8.979129999999999612e+00 3.929850000000000065e+00 9.066919999999999646e+00 9.555410000000000181e+00 9.435739999999999128e+00 3.618790000000000173e+00 9.407579999999999387e+00 9.107350000000000279e+00 9.020250000000000767e+00 3.668779999999999930e+00 1.180560000000000054e+00 1.215819999999999901e+00 3.706379999999999786e+00 1.152819999999999956e+00 6.487969999999999793e+00 4.554280000000000328e+00 5.779530000000000278e+00 1.875660000000000105e+00 3.979210000000000136e+00 6.502200000000000202e+00 6.628129999999999633e+00 2.033300000000000107e+00 1.944879999999999942e+00 3.195279999999999898e+00 1.450660000000000061e+00 1.801649999999999974e+00 8.498419999999999419e+00 1.880200000000000093e+00 7.023690000000000211e+00 3.468890000000000029e+00 1.647569999999999979e+00 6.969000000000000306e+00 8.504640000000000200e+00 6.098370000000000068e+00 1.212919999999999998e+00 9.430899999999999839e-01 6.139940000000000175e+00 1.417659999999999920e+00 6.081959999999999589e+00 7.112680000000000113e+00 2.320660000000000167e+00 3.207300000000000040e+00 6.884850000000000136e+00 1.954579999999999984e+00 8.718260000000000787e+00 7.196609999999999729e+00 6.863749999999999574e+00 3.469939999999999802e+00 6.524569999999999759e+00 6.664299999999999891e+00 8.939999999999999503e+00 6.252329999999999721e+00 4.155920000000000059e+00 1.603560000000000096e+00 6.308950000000000280e+00 4.212419999999999831e+00 6.912069999999999936e+00 6.725189999999999557e+00 8.837910000000000821e+00 1.488550000000000040e+00 6.339439999999999742e+00 9.316290000000000404e+00 7.050040000000000084e+00 9.321320000000000050e+00 1.486509999999999998e+00 4.024860000000000326e+00 9.082110000000000127e+00 1.257130000000000081e+00 9.266629999999999256e+00 9.378819999999999268e+00 6.496690000000000076e+00 3.931179999999999897e+00 9.012520000000000309e+00 6.566609999999999836e+00 9.375510000000000232e+00 6.711140000000000327e+00 4.358460000000000001e+00 4.378650000000000375e+00 7.011000000000000121e+00 4.558880000000000265e+00 9.886549999999999727e+00 6.895430000000000170e+00 9.550140000000000740e+00 4.230660000000000309e+00 6.952659999999999840e+00 9.402089999999999392e+00 9.709849999999999426e+00 9.921699999999999964e-01 1.938280000000000003e+00 8.387299999999999756e-01 1.038569999999999993e+00 2.019909999999999872e+00 6.001330000000000275e+00 9.527099999999999458e-01 7.283990000000000187e+00 5.219500000000000250e-01 8.999300000000000077e-01 7.324639999999999596e+00 6.047030000000000349e+00 1.525810000000000111e+00 4.141490000000000116e+00 4.202510000000000190e+00 1.573080000000000034e+00 4.331030000000000157e+00 9.686690000000000467e+00 1.715659999999999963e+00 9.626400000000000290e+00 4.613229999999999720e+00 1.909410000000000052e+00 9.925489999999999924e+00 9.730270000000000863e+00 1.314300000000000024e+00 4.815959999999999575e+00 1.755859999999999976e+00 9.927000000000000268e-01 4.524540000000000006e+00 7.111410000000000231e+00 1.654039999999999955e+00 9.366020000000000678e+00 1.713279999999999914e+00 1.072130000000000027e+00 9.488340000000000884e+00 7.088799999999999990e+00 3.721480000000000121e+00 3.429549999999999876e+00 1.093539999999999957e+00 3.733350000000000168e+00 3.757229999999999848e+00 6.399280000000000079e+00 4.125490000000000101e+00 8.617739999999999512e+00 1.306829999999999936e+00 3.793890000000000207e+00 9.022970000000000823e+00 6.357409999999999783e+00
2.753249999999999975e+00 1.551299999999999901e-01 2.470040000000000013e+00 2.613960000000000061e+00 1.027524999999999977e+01 7.762209999999999610e+00 2.841140000000000221e+00 5.138779999999999681e+00 2.793789999999999996e+00 2.722519999999999829e+00 5.311580000000000190e+00 8.288280000000000314e+00 4.331699999999999995e-01 2.925850000000000062e+00 2.597609999999999975e+00 3.971000000000000224e-02 2.567559999999999842e+00 7.857420000000000293e+00 4.344700000000000228e-01 7.850500000000000256e+00 2.468030000000000168e+00 1.044636999999999993e+01 7.977699999999999569e+00 8.276590000000000558e+00 8.067059999999999675e+00 2.549240000000000173e+00 5.153260000000000396e+00 7.950919999999999987e+00 2.943220000000000169e+00 1.046188000000000073e+01 7.990820000000000256e+00 8.059889999999999333e+00 5.033870000000000289e+00 8.037069999999999936e+00 7.986220000000000319e+00 1.374700000000000089e-01 5.598349999999999937e+00 3.959099999999999842e-01 2.836799999999999877e-01 5.148150000000000226e+00 1.040654999999999930e+01 5.738769999999999705e+00 4.975570000000000270e+00 5.449010000000000353e+00 9.632000000000000284e-02 5.401980000000000004e+00 4.984029999999999738e+00 5.671120000000000161e+00 5.686230000000000118e+00 2.745629999999999793e+00 2.676260000000000083e+00 5.157099999999999795e+00 2.726109999999999811e+00 7.590150000000000396e+00 5.592760000000000176e+00 7.768629999999999924e+00 2.804829999999999934e+00 5.274829999999999686e+00 7.845240000000000435e+00 8.029859999999999332e+00 8.454330000000000567e+00 1.327800000000000091e-01 2.363649999999999807e+00 7.816580000000000084e+00 4.560000000000000164e-02 8.364079999999999515e+00 7.962150000000000283e+00 5.576220000000000176e+00 2.319529999999999870e+00 7.847940000000000360e+00 5.715639999999999610e+00 8.328319999999999723e+00 5.467100000000000293e-01 2.691899999999999848e-01 1.080617999999999945e+01 1.042497000000000007e+01 1.283999999999999864e-01 5.662989999999999746e+00 1.124399999999999983e-01 5.289850000000000385e+00 7.474000000000000088e-02 3.160000000000000309e-02 5.270909999999999762e+00 5.618269999999999875e+00 2.805460000000000065e+00 2.424710000000000143e+00 5.085799999999999876e+00 2.814929999999999932e+00 2.581589999999999829e+00 1.044818000000000069e+01 2.422649999999999970e+00 7.902999999999999581e+00 5.004620000000000068e+00 2.693519999999999914e+00 8.292120000000000601e+00 5.992000000000000104e-02 8.864029999999999632e+00 4.224380000000000024e+00 7.853799999999999670e-01 9.047319999999999141e+00 3.622700000000000031e+00 6.526279999999999859e+00 9.266469999999999985e+00 9.168799999999999173e+00 9.052200000000000246e-01 8.948109999999999786e+00 9.301349999999999341e+00 6.305819999999999759e+00 3.985469999999999846e+00 1.041779999999999928e+00 4.381610000000000227e+00 4.338499999999999801e+00 1.593320000000000070e+00 1.016824000000000083e+01 3.392640000000000100e+00 6.247410000000000352e+00 4.617530000000000356e+00 3.784640000000000004e+00 6.578420000000000378e+00 1.010510999999999981e+01 4.259879999999999889e+00 3.736139999999999795e+00 4.063489999999999824e+00 3.863879999999999981e+00 3.576449999999999907e+00 8.793549999999999756e+00 3.804149999999999920e+00 9.046960000000000335e+00 3.424749999999999961e+00 3.617430000000000145e+00 8.844030000000000058e+00 8.938140000000000640e+00 1.013617999999999952e+01 1.210620000000000029e+00 1.711850000000000094e+00 9.369579999999999131e+00 1.111110000000000042e+00 7.099470000000000169e+00 9.498770000000000380e+00 6.629330000000000389e+00 1.521959999999999980e+00 9.471320000000000405e+00 6.505609999999999893e+00 7.066360000000000419e+00 9.323280000000000456e+00 4.197320000000000384e+00 3.589679999999999982e+00 9.193130000000000024e+00 3.724460000000000104e+00 9.104179999999999495e+00 9.335940000000000794e+00 9.177479999999999194e+00 3.610510000000000108e+00 9.057140000000000413e+00 9.462979999999999947e+00 9.477710000000000079e+00 4.603690000000000282e+00 1.195019999999999971e+00 1.962509999999999977e+00 3.976620000000000044e+00 1.191629999999999967e+00 6.950370000000000381e+00 4.154729999999999812e+00 6.491209999999999702e+00 1.910849999999999937e+00 4.201130000000000031e+00 6.215460000000000207e+00 7.309280000000000221e+00 1.681070000000000064e+00 1.418830000000000036e+00 3.479979999999999851e+00 1.606819999999999915e+00 1.116829999999999989e+00 9.029790000000000205e+00 1.228099999999999969e+00 6.481020000000000003e+00 3.445149999999999935e+00 1.264739999999999975e+00 6.463840000000000252e+00 8.886290000000000688e+00 7.107980000000000409e+00 1.525689999999999991e+00 1.036850000000000049e+00 6.646609999999999907e+00 1.516829999999999901e+00 6.239200000000000301e+00 6.779560000000000031e+00 9.102700000000000236e-01 3.605989999999999807e+00 6.807979999999999698e+00 1.692209999999999992e+00 9.161110000000000753e+00 6.350139999999999674e+00 6.620860000000000412e+00 6.392759999999999998e+00 6.649960000000000093e+00 6.793820000000000192e+00 9.161279999999999646e+00 6.554689999999999905e+00 4.261680000000000135e+00 2.142739999999999867e+00 6.383399999999999963e+00 4.138419999999999987e+00 7.094960000000000377e+00 6.448170000000000179e+00 6.831120000000000303e+00 9.740699999999999914e-01 6.180060000000000109e+00 9.409390000000000143e+00 7.650190000000000268e+00 9.302089999999999748e+00 1.262930000000000108e+00 4.125880000000000436e+00 9.590949999999999420e+00 1.639710000000000001e+00 1.027047999999999917e+01 6.809400000000000119e+00 6.654919999999999725e+00 3.998600000000000154e+00 8.898070000000000590e+00 6.691410000000000302e+00 9.725809999999999178e+00 6.931269999999999598e+00 3.763220000000000010e+00 4.189879999999999605e+00 6.306180000000000341e+00 4.558980000000000032e+00 9.806169999999999831e+00 6.301059999999999661e+00 8.830439999999999401e+00 4.907119999999999926e+00 6.760710000000000441e+00 9.430329999999999657e+00 1.036477999999999966e+01 2.033999999999999808e+00 1.132719999999999949e+00 7.258299999999999752e-01 1.508369999999999989e+00 1.263670000000000071e+00 6.131409999999999805e+00 1.274389999999999912e+00 6.898760000000000225e+00 7.143100000000000005e-01 1.017889999999999961e+00 6.888130000000000308e+00 6.292740000000000222e+00 1.443659999999999943e+00 3.889549999999999841e+00 4.225369999999999848e+00 1.593990000000000018e+00 4.118660000000000210e+00 9.690369999999999706e+00 1.156809999999999894e+00 9.269199999999999662e+00 4.170939999999999870e+00 1.202909999999999924e+00 9.205460000000000420e+00 9.575969999999999871e+00 9.184299999999999686e-01 4.287219999999999587e+00 1.422770000000000090e+00 1.282739999999999991e+00 4.015550000000000175e+00 6.897929999999999673e+00 1.429270000000000040e+00 9.384149999999999991e+00 1.597820000000000018e+00 9.804000000000000492e-01 9.439360000000000639e+00 7.017669999999999852e+00 3.465209999999999901e+00 4.183950000000000280e+00 9.421199999999999575e-01 4.001059999999999839e+00 3.875500000000000167e+00 6.491859999999999964e+00 3.988140000000000018e+00 9.555569999999999453e+00 7.410499999999999865e-01 3.766109999999999847e+00 9.083099999999999952e+00 6.466400000000000148e+00
2.847049999999999859e+00 1.030936999999999948e+01 2.385250000000000092e+00 2.527919999999999945e+00 1.016690999999999967e+01 7.872620000000000395e+00 2.584420000000000162e+00 5.116740000000000066e+00 2.550460000000000171e+00 2.498639999999999972e+00 5.254290000000000127e+00 7.806799999999999962e+00 4.106699999999999795e-01 2.489749999999999908e+00 2.987119999999999997e+00 1.542699999999999905e-01 3.196870000000000100e+00 7.922220000000000262e+00 1.168499999999999955e-01 7.803630000000000067e+00 2.611530000000000129e+00 7.555000000000000604e-02 7.752740000000000187e+00 8.326850000000000307e+00 7.782519999999999882e+00 2.536950000000000038e+00 5.287099999999999689e+00 7.866439999999999877e+00 2.659229999999999983e+00 1.192200000000000065e-01 7.454189999999999650e+00 7.849730000000000096e+00 5.376240000000000130e+00 7.581520000000000259e+00 7.839419999999999611e+00 1.070299999999999940e+01 5.303749999999999964e+00 1.114300000000000013e-01 1.034179999999999922e+01 4.961470000000000269e+00 1.020471000000000039e+01 5.394129999999999647e+00 5.492160000000000153e+00 5.097629999999999661e+00 1.052790000000000070e+01 5.212889999999999802e+00 5.097310000000000230e+00 5.180939999999999657e+00 5.471540000000000070e+00 2.572849999999999859e+00 2.630059999999999842e+00 5.201690000000000147e+00 2.795209999999999972e+00 8.195240000000000080e+00 5.082910000000000039e+00 7.915149999999999686e+00 2.594800000000000217e+00 5.354449999999999932e+00 7.892109999999999737e+00 8.347110000000000696e+00 7.846199999999999619e+00 1.023640999999999934e+01 2.251170000000000115e+00 7.824939999999999785e+00 3.127499999999999725e-01 7.725909999999999833e+00 7.662099999999999689e+00 5.173510000000000275e+00 2.551299999999999901e+00 7.744530000000000136e+00 5.243009999999999948e+00 7.736390000000000100e+00 3.184000000000000025e-02 1.542199999999999960e-01 1.020950000000000024e+01 1.377599999999999936e-01 1.019771000000000072e+01 5.038450000000000095e+00 1.435500000000000109e-01 5.023970000000000269e+00 4.141000000000000236e-02 4.805000000000000243e-02 5.344509999999999650e+00 4.986130000000000173e+00 2.727390000000000203e+00 2.351739999999999942e+00 5.612669999999999604e+00 2.629220000000000113e+00 2.391490000000000116e+00 1.071620000000000061e+01 2.863620000000000054e+00 7.865590000000000082e+00 5.512999999999999901e+00 2.698100000000000165e+00 7.446030000000000371e+00 1.590199999999999947e-01 8.836740000000000705e+00 4.376050000000000217e+00 8.390100000000000335e-01 9.355999999999999872e+00 4.695000000000000284e+00 6.475769999999999804e+00 8.965830000000000410e+00 9.373070000000000235e+00 6.371799999999999686e-01 8.860459999999999781e+00 9.507490000000000663e+00 6.132130000000000081e+00 4.387400000000000411e+00 1.680220000000000047e+00 4.447890000000000121e+00 4.183889999999999887e+00 1.807290000000000063e+00 9.725699999999999790e+00 3.901159999999999961e+00 6.553480000000000416e+00 4.534989999999999633e+00 4.311980000000000146e+00 6.874399999999999622e+00 9.960599999999999454e+00 4.332349999999999923e+00 4.247230000000000061e+00 3.272089999999999943e+00 4.255650000000000155e+00 4.352630000000000443e+00 8.829449999999999577e+00 3.901710000000000012e+00 9.199630000000000862e+00 3.705330000000000013e+00 4.114589999999999748e+00 9.615449999999999164e+00 8.883269999999999555e+00 8.918449999999999989e+00 1.541700000000000070e+00 1.559800000000000075e+00 8.805400000000000560e+00 2.088560000000000194e+00 7.086420000000000385e+00 8.738580000000000680e+00 6.914089999999999847e+00 1.831210000000000004e+00 8.783739999999999881e+00 7.038710000000000022e+00 7.433099999999999596e+00 9.253999999999999559e+00 4.151270000000000238e+00 3.556550000000000100e+00 9.232720000000000482e+00 4.659699999999999953e+00 9.119239999999999569e+00 9.255869999999999820e+00 9.352550000000000807e+00 3.396729999999999805e+00 9.401490000000000791e+00 9.715930000000000177e+00 8.644759999999999778e+00 3.937980000000000036e+00 1.766569999999999974e+00 1.813900000000000068e+00 3.971789999999999932e+00 1.138679999999999914e+00 7.012419999999999654e+00 3.597030000000000172e+00 6.756490000000000329e+00 1.861720000000000041e+00 3.782290000000000152e+00 7.261879999999999669e+00 7.421190000000000175e+00 1.566480000000000095e+00 9.515700000000000269e-01 3.710929999999999840e+00 1.423340000000000050e+00 1.588540000000000063e+00 9.080180000000000362e+00 1.299360000000000070e+00 6.403830000000000133e+00 3.472999999999999865e+00 1.676029999999999909e+00 6.725430000000000241e+00 8.981329999999999814e+00 6.520080000000000098e+00 1.255249999999999977e+00 9.290500000000000425e-01 6.862289999999999779e+00 9.094999999999999751e-01 6.071439999999999948e+00 6.312909999999999577e+00 6.435880000000000045e+00 1.019660000000000011e+00 6.383110000000000284e+00 6.213449999999999918e+00 6.455639999999999823e+00 7.106250000000000178e+00 1.650800000000000045e+00 3.421409999999999840e+00 6.184849999999999959e+00 1.125410000000000021e+00 8.685610000000000497e+00 6.285160000000000302e+00 6.745140000000000136e+00 3.852129999999999832e+00 6.717010000000000147e+00 6.421640000000000015e+00 9.276680000000000703e+00 6.397949999999999804e+00 3.845219999999999860e+00 1.549120000000000053e+00 6.500149999999999650e+00 3.530520000000000103e+00 6.565620000000000012e+00 6.341610000000000191e+00 8.979770000000000252e+00 1.126630000000000020e+00 5.983369999999999855e+00 8.836029999999999163e+00 6.718530000000000335e+00 9.630000000000000782e+00 1.752070000000000016e+00 4.478489999999999860e+00 9.062950000000000728e+00 1.738569999999999949e+00 9.694960000000000022e+00 9.178060000000000329e+00 6.901259999999999728e+00 4.364530000000000243e+00 9.407659999999999911e+00 7.146899999999999586e+00 9.955189999999999984e+00 6.973569999999999602e+00 4.302529999999999966e+00 4.307450000000000223e+00 6.591949999999999754e+00 3.729629999999999779e+00 9.534039999999999182e+00 6.527289999999999814e+00 9.331799999999999429e+00 4.095100000000000406e+00 6.803539999999999921e+00 9.235630000000000450e+00 9.378629999999999356e+00 1.483940000000000037e+00 1.018159999999999954e+00 1.012469999999999981e+00 1.443840000000000012e+00 1.015989999999999949e+00 6.392610000000000348e+00 1.278000000000000025e+00 6.331140000000000434e+00 9.879400000000000404e-01 1.710380000000000011e+00 6.268180000000000085e+00 6.257889999999999731e+00 1.721629999999999994e+00 3.695600000000000218e+00 4.190249999999999808e+00 1.395990000000000064e+00 4.091849999999999987e+00 9.506759999999999877e+00 1.324330000000000007e+00 8.478020000000000778e+00 4.387249999999999872e+00 1.479810000000000070e+00 9.057980000000000587e+00 9.646039999999999281e+00 1.150519999999999987e+00 3.732209999999999805e+00 1.488839999999999941e+00 1.607580000000000009e+00 3.567270000000000163e+00 6.888279999999999959e+00 1.725389999999999979e+00 8.692339999999999733e+00 1.945629999999999971e+00 1.152530000000000054e+00 8.937459999999999738e+00 6.823229999999999684e+00 3.500090000000000146e+00 4.503129999999999633e+00 8.022500000000000187e-01 3.963049999999999962e+00 4.118769999999999598e+00 6.343939999999999912e+00