-2.402397000000000116e+00 4.130330999999999975e+00 -4.020290000000000252e-01 1.315167999999999893e+00 -9.604439999999999644e-01 3.157423999999999786e+00 -3.732526000000000010e+00 -7.183270000000000488e-01 -6.118699999999999833e-02 1.154921000000000086e+00 1.749772000000000105e+00 2.297426000000000190e+00 -2.799303999999999792e+00 2.657204999999999817e+00 2.917869000000000046e+00 -2.668607999999999869e+00 2.856300000000000158e-02 -1.703694000000000042e+00 -2.284044999999999881e+00 1.024540000000000006e+00 2.219837000000000060e+00 3.289380000000000082e-01 -3.375487999999999822e+00 5.483059999999999601e-01 2.942255999999999982e+00 6.891089999999999716e-01 2.179381999999999930e+00 3.030100000000000016e-01 -1.460414000000000101e+00 -5.110083999999999627e+00 2.804867999999999917e+00 -3.461311999999999944e+00 2.379844999999999988e+00 1.331680000000000086e-01 -1.496280000000000054e+00 2.077199999999999880e-01 3.995584000000000024e+00 -3.097334000000000032e+00 -1.317474999999999952e+00 1.008799999999999919e+00 2.616613000000000078e+00 -3.326339999999999852e-01 -1.930048999999999904e+00 -3.892955000000000165e+00 -8.211000000000000243e-02 9.237469999999999848e-01 4.877330000000000276e-01 2.041132000000000168e+00 -2.270795999999999815e+00 8.949759999999999938e-01 -3.172518000000000171e+00 9.588499999999999801e-02 1.547638000000000069e+00 -1.880530000000000035e+00 -8.262540000000000440e-01 4.823935999999999780e+00 -4.418232999999999855e+00 6.009879999999999667e-01 1.318152999999999908e+00 -1.142276000000000069e+00 1.876152000000000042e+00 1.680879000000000012e+00 1.006960000000000077e+00 -8.673610000000000486e-01 -2.598380000000000134e-01 1.758305000000000007e+00 1.856009999999999938e+00 2.950864999999999849e+00 4.349865000000000315e+00 2.254802999999999891e+00 -5.758769999999999722e-01 -4.228372000000000241e+00 -4.017534999999999634e+00 -1.782867999999999897e+00 1.222285000000000066e+00 -1.822719999999999896e-01 2.156315000000000204e+00 -5.489849999999999453e-01 -6.427300000000000235e-01 -4.977452000000000432e+00 1.339712999999999932e+00 1.283601999999999910e+00 -2.582723999999999798e+00 -1.689581000000000000e+00 1.477125000000000021e+00 1.047383199999999981e+01 -9.606737000000000748e+00 -1.275527000000000077e+00 2.945999999999999834e-03 -8.909850000000000270e-01 -1.233872000000000080e+00 -3.334017999999999926e+00 -9.460300000000000653e-02 -1.249479000000000006e+00 -1.200166000000000066e+00 -2.846051999999999804e+00 1.204769999999999897e+00 5.143680000000000474e-01 -2.428854999999999986e+00 -5.453109999999999902e-01 -7.922240000000000393e-01 1.119119999999999893e+00 1.169693000000000094e+00 1.596069999999999989e-01 5.995789999999999731e-01 6.239839999999999831e-01 -2.045462999999999809e+00 -2.810538000000000203e+00 5.733859999999999513e-01 9.584999999999999770e-03 -3.283119999999999927e-01 1.419823999999999975e+00 1.976234000000000046e+00 4.490790000000000060e-01 -6.115019000000000204e+00 -2.855007000000000073e+00 6.111499000000000237e+00 -1.329811999999999994e+00 -2.220307000000000031e+00 -3.527040000000000175e-01 -2.624851000000000045e+00 -4.335593000000000252e+00 -4.172941999999999929e+00 -2.701189999999999980e-01 4.204510000000000192e-01 -8.309500000000000219e-02 2.702688999999999897e+00 -7.550430000000000197e-01 -1.779999999999999898e-03 -1.313360000000000083e-01 -2.685049999999999937e-01 1.104721999999999982e+00 2.159961000000000020e+00 -9.935920000000000307e-01 -1.920701999999999909e+00 4.341400000000000148e+00 -1.779830000000000023e-01 -1.306569999999999954e-01 2.322738999999999887e+00 2.175657999999999870e+00 8.802520000000000344e-01 1.696312000000000042e+00 2.462117000000000111e+00 2.225897999999999932e+00 -1.736474999999999991e+00 4.936949999999999950e-01 1.326168000000000013e+00 -2.247589999999999866e-01 -1.039457000000000075e+00 2.486949999999999994e-01 -1.247114999999999974e+00 1.682428999999999952e+00 -6.259540000000000104e-01 -1.498078999999999938e+00 4.403290000000000259e-01 -2.732013999999999943e+00 1.073989000000000082e+00 -6.447789999999999910e-01 2.974368000000000123e+00 2.520821999999999896e+00 -1.029719000000000051e+00 -5.231329999999999592e-01 -1.131169000000000091e+00 9.659470000000000001e-01 2.054260999999999893e+00 1.733870999999999940e+00 2.233924000000000021e+00 1.679977000000000054e+00 -1.175788999999999973e+00 5.804489999999999927e-01 -6.572240000000000304e-01 -3.488649999999999807e-01 7.387839999999999963e-01 -8.161880000000000246e-01 8.838989999999999903e-01 -4.927079999999999793e-01 3.646659999999999902e-01 1.656029999999999891e+00 2.846046999999999993e+00 1.133540999999999910e+00 2.754999999999999893e+00 -3.791800999999999977e+00 2.089719999999999911e-01 2.441333999999999893e+00 -5.811100000000000154e-01 -1.650555999999999912e+00 2.141002999999999989e+00 5.667480000000000295e-01 1.972079999999999944e-01 -5.330421000000000298e+00 1.322184999999999944e+00 6.955290999999999890e+00 -2.833454999999999835e+00 -1.835722999999999994e+00 -1.639353999999999978e+00 1.231681000000000026e+00 2.878359999999999808e-01 -1.799897000000000080e+00 -5.576910000000000478e-01 -2.192286000000000179e+00 2.403929999999999900e+00 -2.166180000000000050e-01 1.770933000000000090e+00 1.445321999999999996e+00 -1.144479999999999942e+00 -3.837222999999999828e+00 1.259872000000000103e+00 -4.792200000000000237e+00 -2.742166999999999799e+00 -3.343938000000000077e+00 2.222449999999999981e-01 1.146511000000000058e+00 -4.781039999999999734e-01 -1.135874999999999968e+00 -5.338330000000000020e-01 -1.017750000000000044e-01 3.663999999999999896e-02 1.325660000000000061e+00 1.582724000000000020e+00 1.901321000000000039e+00 2.345725999999999978e+00 -1.453141000000000016e+00 3.441987999999999825e+00 -2.512789000000000161e+00 1.811814000000000036e+00 7.655499999999999805e-02 -3.843779999999999974e-01 1.762639000000000067e+00 3.714709999999999956e-01 9.528069999999999595e-01 -2.654909999999999770e-01 4.189200000000000146e-01 4.090008000000000088e+00 2.900561999999999863e+00 2.502949999999999897e-01 2.686920999999999893e+00 1.255878999999999968e+00 -1.697346000000000021e+00 -6.005000000000000338e-01 -1.171770999999999896e+00 2.246824000000000154e+00 1.388625999999999916e+00 -1.336103000000000041e+00 -5.824700000000000433e-01 -4.585061999999999749e+00 3.263427000000000078e+00 -2.740924999999999834e+00 -1.438217999999999996e+00 2.161700000000000080e-02 -1.325352000000000086e+00 9.123719999999999608e-01 -5.458049999999999846e-01 1.962139000000000078e+00 1.087320999999999982e+00 -1.213721999999999968e+00 -5.776400000000000284e-02 -9.759189999999999809e-01 -2.544839999999999880e-01 -2.764340000000000130e-01 1.125355000000000105e+00 -7.231440000000000090e-01 1.517033999999999994e+00 -8.496639999999999748e-01 1.603107000000000060e+00 2.369578000000000184e+00 -2.384757000000000016e+00 -2.079426999999999914e+00 -7.328230000000000022e-01 -5.460949999999999971e-01 -1.203888999999999987e+00 -8.595300000000000162e-02 1.421330000000000093e-01 -2.685150000000000037e-01 1.129769000000000023e+00 -1.070575000000000054e+00 -4.860010000000000163e-01 -2.521117999999999970e+00 1.534969000000000028e+00 1.522413000000000016e+00 -1.625512999999999986e+00 -1.784229999999999983e-01 -2.291860999999999926e+00 -5.343010000000000259e-01 2.247259999999999813e+00 1.326492999999999922e+00
1.514485000000000081e+00 6.688330000000000108e-01 1.810410000000000075e+00 1.404163000000000050e+00 2.919649999999999745e-01 1.934659999999999991e-01 -1.519012999999999947e+00 -7.606439999999999868e-01 -8.720679999999999543e-01 -3.542924000000000184e+00 -1.492259999999999975e-01 -1.655410999999999966e+00 6.300989999999999647e-01 -1.450075999999999921e+00 8.709540000000000060e-01 1.510569000000000051e+00 1.232929999999999998e-01 -1.621987999999999985e+00 -3.179300000000000181e-02 3.277330000000000076e+00 1.415072000000000108e+00 1.192763999999999935e+00 2.254710000000000047e-01 -1.481589999999999963e+00 -3.755867999999999984e+00 1.780067999999999984e+00 4.251510000000000011e-01 5.692289999999999850e-01 2.130367000000000122e+00 -1.502205999999999930e+00 5.723618000000000094e+00 2.299110999999999905e+00 2.398490999999999929e+00 1.431624999999999925e+00 -3.329477999999999938e+00 -2.692417999999999978e+00 -1.760485000000000078e+00 -2.337915000000000187e+00 -2.697042000000000161e+00 -2.146103999999999790e+00 -8.441570000000000462e-01 -2.444919999999999871e-01 -2.524440999999999935e+00 1.359750000000000125e-01 2.321984000000000048e+00 1.054005000000000081e+00 1.710150000000000003e-01 7.481999999999999762e-02 -2.643959999999999866e+00 -3.229900000000000132e-02 6.408169999999999700e-01 2.008929999999999882e+00 6.613400000000000389e-01 -2.231631000000000142e+00 1.247397000000000089e+00 -1.931350000000000011e-01 -7.472860000000000058e-01 1.036702000000000012e+00 -6.009949999999999459e-01 1.283990000000000131e-01 2.020332999999999934e+00 1.872709999999999930e-01 -3.198765999999999998e+00 -7.527399999999999647e-01 1.119639000000000051e+00 -6.244579999999999576e-01 5.065958000000000183e+00 -3.754258999999999791e+00 4.066770000000000107e-01 5.009199999999999764e-02 1.394562999999999997e+00 -5.972429999999999684e-01 -1.233520000000000033e-01 1.488566999999999974e+00 2.739599999999999813e-01 1.847313999999999901e+00 2.430750000000000133e-01 -3.307834000000000163e+00 -2.655775999999999915e+00 9.670269999999999699e-01 -9.087359999999999882e-01 -3.662529999999999952e-01 1.399426000000000059e+00 1.037708000000000075e+00 2.310329999999999884e-01 -3.457491000000000092e+00 -2.903544000000000125e+00 7.480670000000000375e-01 -1.595385999999999971e+00 -1.860390000000000099e-01 -3.123179999999999845e-01 5.392500000000000071e-02 7.191600000000000215e-01 -3.057377999999999929e+00 4.173364000000000296e+00 1.273892999999999942e+00 -5.874800000000000161e-02 1.431489999999999985e-01 -2.542184999999999917e+00 -6.970999999999999419e-02 1.664055000000000062e+00 2.344459999999999877e-01 4.972499999999999837e-02 4.798709999999999920e-01 3.176550000000000207e-01 -4.190340000000000176e-01 -1.875407999999999964e+00 -3.545900000000000163e-01 5.014049999999999896e-01 1.604414000000000007e+00 8.893400000000000194e-01 -2.978771000000000058e+00 1.844780000000000086e+00 1.166123000000000021e+00 -3.927096000000000142e+00 2.800590000000000135e+00 -1.080718999999999985e+00 3.787659999999999916e-01 -8.149549999999999850e-01 -2.737180000000000168e-01 -8.058629999999999960e-01 -8.350589999999999957e-01 4.735179999999999945e-01 1.476995999999999976e+00 -7.140579999999999705e-01 -8.474599999999999911e-01 -8.160150000000000459e-01 -3.307039999999999980e-01 2.028747000000000078e+00 1.087550000000000017e+00 1.095458999999999961e+00 -6.440780000000000394e-01 8.873199999999999976e-01 1.611509000000000080e+00 -1.534011999999999931e+00 -7.158079999999999998e-01 -1.316847000000000101e+00 -3.064972000000000030e+00 4.426590000000000247e-01 6.597450000000000259e-01 3.923699000000000048e+00 7.759420000000000206e-01 -1.103293999999999997e+00 -1.539983000000000102e+00 -2.254881000000000135e+00 7.481510000000000105e-01 -2.995430000000000037e-01 -4.460830000000000073e-01 6.853110000000000035e-01 2.372666999999999859e+00 -4.603470000000000062e-01 3.845870000000000122e-01 1.456542000000000003e+00 2.140254000000000101e+00 1.623526000000000025e+00 1.859450000000000047e+00 2.793963000000000196e+00 -3.160620000000000096e-01 3.642926000000000109e+00 5.328299999999999703e-02 -1.219270000000000076e+00 -1.543233999999999995e+00 -1.071490999999999971e+00 1.639399999999999885e-02 1.078797999999999924e+00 1.374476999999999949e+00 -6.963030000000000053e-01 -1.946395000000000097e+00 1.761918000000000095e+00 1.698098000000000107e+00 2.771797999999999984e+00 -2.719897000000000009e+00 -2.023389999999999911e-01 6.026610000000000023e-01 -1.027595999999999954e+00 -5.199899999999999661e-02 -2.429000000000000169e-03 1.734169999999999878e-01 -1.488102000000000036e+00 -1.693351999999999968e+00 1.985550000000000093e-01 5.852610000000000312e-01 1.245071999999999957e+00 1.970363000000000087e+00 1.389143999999999934e+00 -9.504749999999999588e-01 -2.954794000000000143e+00 -2.002845000000000208e+00 1.434588999999999892e+00 -8.118689999999999518e-01 5.789910000000000334e-01 -1.194489999999999996e-01 6.821499999999999786e-02 -4.922200000000000186e-02 1.114544999999999897e+00 8.541320000000000023e-01 -1.578653000000000084e+00 -4.143580000000000041e-01 -1.731727000000000016e+00 4.534845999999999933e+00 1.517200000000000104e+00 -2.765310000000000268e-01 1.531389999999999973e-01 -3.749937000000000076e+00 4.564799999999999969e-01 1.568148000000000097e+00 1.176967000000000096e+00 1.531612999999999891e+00 -1.137531999999999988e+00 2.227840000000000042e+00 2.068083000000000116e+00 -8.653210000000000068e-01 2.170583000000000151e+00 -2.002517999999999798e+00 1.985500000000000043e-01 -2.093382000000000076e+00 6.212959999999999594e-01 -5.747100000000000125e-02 1.384460000000000135e-01 6.642120000000000246e-01 9.928679999999999728e-01 -4.530399999999999983e-01 -7.192110000000000447e-01 3.848260000000000014e-01 1.087677999999999923e+00 -3.515662999999999982e+00 -6.645119999999999916e-01 -7.197280000000000344e-01 -3.150900000000000228e-02 -1.011154000000000108e+00 -5.415119999999999933e-01 -5.805649999999999977e-01 -7.444150000000000489e-01 3.284924000000000177e+00 1.621564999999999923e+00 1.818999000000000033e+00 -1.115695000000000103e+00 -1.986169999999999991e+00 -1.218540000000000040e-01 1.799085999999999963e+00 3.950752000000000042e+00 -3.032528000000000112e+00 -1.791263000000000050e+00 1.040415000000000090e+00 -3.883079999999999865e-01 5.923699999999999799e-02 1.800200000000000064e-02 6.202900000000000080e-02 -3.736119999999999997e-01 9.398459999999999592e-01 -3.154489999999999794e-01 1.153405000000000014e+00 1.740240000000000009e+00 -9.725369999999999848e-01 -1.900787999999999922e+00 3.360730000000000217e+00 -2.737610999999999795e+00 2.210949999999999971e+00 4.228850000000000109e-01 -2.011213000000000140e+00 5.674150000000000027e-01 -2.731308999999999987e+00 -2.260775999999999897e+00 -4.330269999999999953e-01 2.464372000000000007e+00 2.892472999999999850e+00 1.038537999999999961e+00 -5.175380000000000535e-01 -2.419827999999999868e+00 -5.793380000000000196e-01 -4.351820000000000133e-01 1.986600000000000033e-01 1.224969999999999948e-01 3.486779999999999879e-01 9.813749999999999973e-01 1.152339999999999920e+00 -2.664051999999999865e+00 -1.294057999999999931e+00 1.538057000000000007e+00 -2.504351999999999911e+00 -9.940189999999999859e-01 -1.239079000000000041e+00 -1.097758999999999929e+00 -2.061802999999999830e+00 -5.345969999999999889e-01
-3.498220000000000218e-01 -1.039236999999999966e+00 4.629409999999999914e-01 5.964920000000000222e-01 -2.879954000000000125e+00 -7.852120000000000211e-01 4.085857999999999990e+00 7.247949999999999671e-01 5.343670000000000364e+00 1.732789999999999886e-01 -4.896789999999999754e-01 -9.636360000000000481e-01 -1.407670999999999895e+00 1.827534999999999910e+00 3.525358000000000214e+00 -2.607235999999999887e+00 -1.319995000000000029e+00 -1.391120000000000134e-01 -3.739790000000000059e-01 6.562000000000000124e-03 1.496210999999999958e+00 3.422969000000000150e+00 -1.586878999999999929e+00 1.741489999999999982e-01 6.086880000000000068e-01 3.233670000000000155e-01 1.035068000000000099e+00 -3.517449999999999743e-01 -3.310069999999999957e-01 -5.599319999999999853e-01 -4.716846999999999568e+00 -1.289304999999999923e+00 1.935518000000000072e+00 4.527599999999999680e-02 4.864752000000000187e+00 -4.482519999999999838e-01 1.588918999999999970e+00 -1.172652999999999945e+00 4.430061000000000249e+00 -2.688911000000000051e+00 1.253883000000000081e+00 1.261427999999999994e+00 -1.807320000000000038e-01 -1.455889999999999962e-01 2.869946000000000108e+00 9.437670000000000226e-01 3.324193000000000175e+00 2.745875999999999983e+00 -9.598130000000000273e-01 -2.642849999999999921e-01 -3.084290000000000087e-01 1.180960000000000065e-01 1.241138999999999992e+00 1.365588000000000024e+00 -2.835087000000000135e+00 -1.885664999999999925e+00 -7.966170000000000195e-01 -1.531639999999999946e-01 -9.471460000000000434e-01 -1.518405000000000005e+00 -4.646370000000000222e-01 -9.197000000000000314e-03 -6.158090000000000508e-01 2.246029999999999971e-01 7.705790000000000139e-01 7.666410000000000169e-01 1.244385999999999992e+00 1.579774999999999929e+00 -1.288377000000000105e+00 -2.622630000000000239e-01 3.266649999999999832e-01 1.189540000000000042e-01 3.614080000000000070e-01 4.375780000000000225e-01 -1.008742999999999945e+00 -5.333989999999999565e-01 -5.397429999999999728e-01 -1.892559000000000102e+00 2.508976999999999791e+00 3.772288000000000086e+00 2.103258999999999990e+00 2.197616000000000014e+00 2.244924000000000142e+00 1.114748000000000072e+00 1.416968999999999923e+00 -1.174242999999999926e+00 -2.535130999999999801e+00 -1.597455999999999987e+00 -4.596155999999999686e+00 -1.306880000000000042e+00 -1.033540000000000014e-01 1.737681000000000031e+00 -8.686639999999999917e-01 1.425759999999999916e+00 1.895680000000000032e+00 -6.872279999999999500e-01 -5.813100000000000211e-02 -3.147107999999999794e+00 2.621569999999999734e-01 2.145302000000000042e+00 -5.474010000000000264e-01 2.302220000000000100e-01 -6.221980000000000288e-01 8.000639999999999974e-01 1.622170000000000001e-01 -2.288099999999999856e-02 5.719459999999999544e-01 8.868470000000000519e-01 6.390010000000000412e-01 -9.706209999999999560e-01 8.748730000000000118e-01 -1.505420000000000091e-01 1.047625000000000028e+00 -2.022711000000000148e+00 -4.837629999999999986e-01 2.358149999999999968e-01 3.132489999999999997e-01 -1.213157999999999959e+00 -8.212749999999999773e-01 1.031873999999999958e+00 -1.145076999999999900e+00 5.479199999999999626e-01 -1.058560000000000056e-01 -4.192839999999999900e-01 -7.553710000000000147e-01 -3.092134999999999856e+00 9.795930000000000470e-01 1.126262000000000096e+00 4.196610000000000062e-01 -6.537359999999999838e-01 -2.519022000000000094e+00 -1.501349000000000045e+00 -4.515549999999999842e-01 1.271001000000000047e+00 -5.313560000000000505e-01 -2.362712999999999841e+00 1.763516000000000084e+00 -1.817471000000000059e+00 -1.415723999999999982e+00 -4.698789999999999911e-01 -2.674929999999999808e-01 -1.315947999999999896e+00 1.985313000000000105e+00 -4.934439999999999937e-01 -6.756060000000000398e-01 -8.884859999999999980e-01 -2.472900000000000098e-01 2.196566999999999936e+00 -2.260984000000000105e+00 7.932439999999999491e-01 1.199618999999999991e+00 -6.720000000000000279e-03 6.473139999999999450e-01 2.405317000000000149e+00 -7.168449999999999545e-01 9.378640000000000310e-01 4.118000000000000133e-02 -3.372700000000000142e-01 4.430029999999999801e-01 6.050600000000000422e-01 -7.353410000000000224e-01 9.709790000000000365e-01 5.660509999999999708e-01 2.122778999999999971e+00 1.029544999999999932e+00 1.206768999999999981e+00 -1.063563999999999954e+00 -1.223977000000000093e+00 -4.918859000000000314e+00 -1.968050000000000077e-01 -2.610507000000000133e+00 -3.125573000000000157e+00 2.166767000000000110e+00 -3.479646999999999935e+00 4.211810000000000276e-01 1.920106000000000090e+00 -6.818830000000000169e-01 4.263239999999999807e-01 -9.335520000000000485e-01 -7.231020000000000225e-01 -7.723419999999999730e-01 3.730390000000000095e-01 1.586732999999999949e+00 -1.590840000000000032e+00 1.813649000000000067e+00 -7.556420000000000359e-01 1.285002999999999895e+00 1.412328000000000028e+00 1.797538999999999998e+00 2.377130999999999883e+00 -1.849129000000000023e+00 1.383828000000000058e+00 -6.116289999999999782e-01 -1.666307999999999900e+00 4.232909999999999728e-01 -7.405329999999999968e-01 -2.077348999999999890e+00 3.483020000000000005e-01 -1.778772000000000020e+00 1.668769999999999976e-01 1.751541999999999932e+00 -2.103939000000000004e+00 9.698210000000000441e-01 -2.583076000000000150e+00 1.690900000000000042e-02 6.209459999999999980e-01 -1.526302999999999965e+00 -8.102089999999999570e-01 -8.964910000000000379e-01 -3.517040000000000166e-01 3.341299999999999826e-01 3.595929999999999960e-01 4.038089999999999735e-01 5.828300000000000147e-02 -3.569350000000000023e-01 -1.327244000000000090e+00 -5.571739999999999471e-01 -1.514861000000000013e+00 7.739030000000000076e-01 1.469975000000000032e+00 7.650909999999999656e-01 -1.906299999999999939e-01 3.399479999999999724e-01 7.698720000000000008e-01 -1.279600000000000008e-02 -1.430102999999999902e+00 -1.351984000000000075e+00 2.406695000000000029e+00 3.179784000000000166e+00 -4.017006000000000299e+00 -3.143879000000000090e+00 2.870029999999999859e+00 2.196790000000000131e-01 -1.925054999999999961e+00 2.725398999999999905e+00 -3.566469999999999918e-01 2.745432000000000095e+00 -2.310184000000000015e+00 2.192381999999999831e+00 1.043317000000000050e+00 -1.479162000000000088e+00 -8.258280000000000065e-01 -7.319200000000000150e-01 -7.050739999999999785e-01 1.500439999999999996e+00 -1.427539999999999920e-01 2.150276999999999994e+00 7.176499999999999546e-02 -7.161990000000000300e-01 -7.835180000000000478e-01 -2.315789000000000097e+00 -1.673214999999999897e+00 3.541309999999999736e-01 -1.906965999999999939e+00 -3.332510000000000194e-01 1.947099999999999942e-01 2.388253000000000181e+00 2.813760000000000150e-01 -2.848313999999999790e+00 -5.224800000000000555e-01 5.682390000000000496e-01 2.204480999999999913e+00 8.828300000000000036e-01 -6.631550000000000500e-01 -1.139880000000000004e+00 -1.573512999999999940e+00 -2.127540999999999904e+00 1.150417000000000023e+00 -5.006990000000000052e-01 -2.616722000000000214e+00 -1.449894999999999934e+00 8.677200000000000191e-02 -1.926315000000000000e+00 1.384776000000000007e+00 2.069761000000000184e+00 3.116401999999999894e+00 1.395952000000000082e+00 3.936379999999999879e-01 6.402750000000000385e-01 1.776105999999999963e+00 -2.125300000000000106e-02 -9.498830000000000329e-01 6.699610000000000287e-01 -1.153032000000000057e+00 -8.046560000000000379e-01
5.568720000000000336e-01 -5.236113999999999713e+00 -2.075451000000000157e+00 2.465936000000000128e+00 -3.601210000000000244e-01 1.886495999999999951e+00 -1.581148999999999916e+00 3.521433000000000035e+00 -1.931359000000000048e+00 2.220499999999999904e-02 2.617530000000000134e-01 1.156821000000000099e+00 3.981330000000000147e-01 1.441381000000000023e+00 -1.964000000000000034e-03 4.818871999999999822e+00 -4.483690000000000175e+00 -4.295454000000000327e+00 -3.670610000000000261e-01 -1.328610000000000069e+00 2.553914999999999935e+00 1.194207999999999936e+00 -4.875410000000000021e-01 -8.964100000000000401e-01 -1.969770000000000132e-01 -4.147680000000000256e-01 1.869877999999999929e+00 1.536485000000000101e+00 -2.302049999999999930e-01 -1.839199999999999863e-02 7.309499999999999886e-01 -1.170447000000000015e+00 -2.719345999999999819e+00 1.853620000000000045e+00 -3.185490000000000266e-01 -8.837169999999999748e-01 -3.986838000000000104e+00 3.161240999999999968e+00 -8.852999999999999758e-03 -1.883245000000000058e+00 2.273999999999999980e-02 5.173640000000000461e-01 1.148730999999999947e+00 -3.823969999999999869e-01 1.725382999999999889e+00 -1.193057000000000034e+00 7.363720000000000265e-01 -2.020959999999999979e-01 1.440858999999999890e+00 1.065630000000000049e-01 -8.485629999999999562e-01 2.794582000000000122e+00 8.338640000000000496e-01 -1.640795000000000003e+00 1.236353000000000035e+00 -2.760226999999999986e+00 -4.011603000000000030e+00 2.300596999999999781e+00 -3.960719999999999796e-01 9.867989999999999817e-01 -5.092410000000000547e-01 2.466248000000000218e+00 -5.470930000000000515e-01 -1.686728999999999923e+00 -3.113500000000000156e-01 -6.399650000000000061e-01 -5.362350000000000172e-01 -5.105520000000000058e-01 7.035400000000000542e-01 -1.336030999999999969e+00 4.254013999999999740e+00 1.365564999999999918e+00 -2.414150999999999936e+00 -1.117213999999999929e+00 -2.007775999999999783e+00 -7.830939999999999568e-01 1.670979999999999910e+00 -1.287030000000000118e-01 1.472874999999999934e+00 -1.204749000000000070e+00 1.104962000000000000e+00 -2.933171999999999890e+00 -4.957144000000000439e+00 -7.030910000000000215e-01 8.625190000000000357e-01 7.742850000000000010e-01 3.596829999999999750e-01 -1.741988000000000092e+00 4.603769999999999807e-01 -3.559731999999999896e+00 -1.633402999999999938e+00 -1.695299999999999863e-01 1.801620999999999917e+00 1.603040999999999938e+00 -1.083744000000000041e+00 1.740380999999999956e+00 -2.989869999999999806e+00 1.989695999999999909e+00 2.391020000000000145e+00 -1.017675000000000107e+00 -6.004969999999999475e-01 -1.030235000000000012e+00 1.707060999999999940e+00 3.169948999999999906e+00 3.146358000000000210e+00 -9.032999999999999918e-01 -2.049892999999999965e+00 -4.862420000000000075e-01 -2.370017999999999958e+00 -6.342399999999999427e-02 -1.218639999999999946e+00 -5.291686999999999585e+00 2.533514999999999961e+00 4.972506000000000093e+00 5.744580000000000242e-01 -3.267192999999999792e+00 9.064879999999999605e-01 7.949570000000000247e-01 -9.720010000000000039e-01 -2.457644000000000162e+00 3.698560000000000181e-01 -2.274685999999999986e+00 1.491929000000000061e+00 3.770649999999999835e-01 4.908599999999999769e-02 1.230379999999999946e-01 -2.785020000000000273e-01 -1.300249999999999906e+00 -8.537320000000000464e-01 -1.395810000000000106e-01 2.185401999999999845e+00 2.759171999999999958e+00 9.303970000000000296e-01 1.777368999999999977e+00 -9.009949999999999903e-01 -8.496219999999999883e-01 7.274730000000000363e-01 -7.531390000000000029e-01 7.068719999999999448e-01 1.135388999999999982e+00 -7.477709999999999635e-01 -3.975440000000000085e-01 1.587359999999999882e-01 3.973260000000000125e-01 -1.070694000000000035e+00 6.286720000000000086e-01 -9.582500000000000462e-01 2.360520000000000118e-01 -1.010850000000000026e+00 7.994199999999999917e-02 2.173293000000000141e+00 3.126453000000000149e+00 -1.850689999999999946e+00 1.362797000000000036e+00 1.171483999999999970e+00 -7.329320000000000279e-01 3.256234000000000073e+00 -3.760359999999999814e-01 -1.806081000000000047e+00 2.324336999999999875e+00 4.087620000000000142e-01 -5.848370000000000513e-01 -1.488804000000000016e+00 1.116263000000000005e+00 3.123323000000000071e+00 -1.648384999999999989e+00 6.708190000000000541e-01 1.531805000000000083e+00 2.268310000000000048e-01 2.047607999999999873e+00 -6.962460000000000315e-01 -7.511799999999999589e-01 5.119789999999999619e-01 -2.367884999999999796e+00 5.725050000000000416e-01 2.255603999999999942e+00 -8.638869999999999605e-01 1.980691999999999897e+00 -1.090873999999999899e+00 -1.070518999999999998e+00 -4.308939999999999992e-01 -9.294310000000000072e-01 -6.381459999999999910e-01 3.096738000000000213e+00 -1.593839999999999923e+00 3.440529999999999977e-01 -2.003528999999999893e+00 1.380790000000000073e-01 -6.969400000000000595e-02 -1.399051000000000045e+00 -2.909981000000000151e+00 -9.750140000000000473e-01 -8.674199999999999688e-01 2.182769999999999988e-01 3.449189999999999756e-01 -1.933658000000000099e+00 2.767062999999999828e+00 1.218509000000000064e+00 1.434627000000000097e+00 -2.179621000000000031e+00 7.763569999999999638e-01 -7.552699999999999692e-02 -3.733290000000000219e-01 1.544675999999999938e+00 -4.244799999999999962e-02 2.311020000000000019e-01 -1.040143999999999957e+00 1.673303999999999903e+00 -1.217996000000000079e+00 3.693474999999999842e+00 1.897459999999999980e-01 -1.372822999999999904e+00 -1.015012999999999943e+00 1.704293999999999976e+00 -3.649459999999999926e-01 3.433109999999999773e-01 9.516670000000000407e-01 1.474564999999999904e+00 4.760480000000000267e-01 2.831449999999999800e-01 6.984500000000000430e-02 -2.398026999999999909e+00 -1.076805000000000012e+00 -7.441780000000000062e-01 2.829940999999999818e+00 2.306137000000000103e+00 -4.701759999999999828e-01 6.012150000000000549e-01 -1.603849000000000080e+00 1.424272999999999900e+00 2.697783999999999960e+00 -1.355912000000000006e+00 -2.808279999999999887e+00 1.375010000000000121e-01 -6.766199999999999992e-02 -5.787679999999999492e-01 1.856975999999999960e+00 9.989130000000000509e-01 1.991953000000000085e+00 -8.468029999999999724e-01 -1.253061999999999898e+00 6.602489999999999748e-01 6.127629999999999466e-01 -7.908640000000000114e-01 1.324660000000000004e-01 5.977860000000000396e-01 -4.761139999999999817e-01 -2.032967000000000191e+00 1.178401000000000032e+00 6.972599999999999909e-01 4.423259999999999970e-01 -2.638999999999999790e+00 -3.587520000000000153e-01 4.328600000000000225e-01 -5.475489999999999524e-01 1.313221999999999889e+00 6.903639999999999777e-01 8.687169999999999614e-01 -1.014564000000000021e+00 -1.577814999999999968e+00 -2.652689999999999770e-01 -1.287757999999999958e+00 -1.505621000000000098e+00 2.059000999999999859e+00 -8.965910000000000268e-01 1.861963999999999952e+00 -1.814626999999999990e+00 9.724369999999999958e-01 1.500756999999999897e+00 -1.618719999999999881e-01 -4.781159999999999854e-01 -4.444670000000000010e-01 3.120330000000000048e-01 5.415109999999999646e-01 2.827274000000000065e+00 1.646980000000000111e-01 2.803350000000000009e-01 -1.566678999999999933e+00 -4.886820000000000053e-01 -1.292148999999999992e+00 4.102560000000000096e-01 -6.430630000000000512e-01 2.103790000000000104e-01 -4.953799999999999870e-02 -1.310488000000000097e+00