5.190170000000000172e+00 1.907869999999999955e+00 2.884059999999999846e+00 5.035449999999999982e+00 2.800619999999999887e+00 7.870949999999999669e+00 5.289930000000000021e+00 7.962880000000000180e+00 2.388090000000000046e+00 5.299500000000000099e+00 8.399900000000000588e+00 7.866430000000000256e+00 1.036088999999999949e+01 2.997829999999999995e+00 2.864549999999999930e+00 1.603900000000000048e-01 2.717989999999999906e+00 8.215439999999999188e+00 1.015568999999999988e+01 7.348860000000000170e+00 2.455540000000000056e+00 4.392999999999999683e-02 7.554529999999999745e+00 8.128009999999999735e+00 2.754469999999999974e+00 1.030979999999999919e+01 2.509279999999999955e+00 2.474749999999999783e+00 1.031949999999999967e+01 7.687020000000000408e+00 3.052400000000000002e+00 5.175720000000000098e+00 2.822060000000000013e+00 2.852160000000000029e+00 5.399259999999999948e+00 7.418820000000000192e+00 8.085419999999999163e+00 3.509000000000000313e-02 2.757870000000000044e+00 8.213889999999999247e+00 2.576000000000000165e-02 7.737129999999999619e+00 7.380860000000000198e+00 5.042080000000000339e+00 2.658749999999999947e+00 7.910569999999999879e+00 5.203400000000000247e+00 8.130380000000000607e+00 3.157770000000000188e+00 2.623000000000000220e+00 5.249290000000000234e+00 2.694799999999999862e+00 2.742539999999999978e+00 1.638100000000000112e-01 2.006139999999999812e+00 8.066290000000000404e+00 4.850889999999999702e+00 2.663520000000000110e+00 7.952919999999999767e+00 8.859999999999999820e-03 7.674789999999999779e+00 3.203209999999999891e+00 5.192940000000000111e+00 7.549199999999999910e+00 2.828019999999999978e+00 9.446999999999999842e-02 7.930290000000000283e+00 7.257349999999999746e+00 5.379299999999999748e+00 7.921700000000000408e+00 7.939440000000000275e+00 1.065055000000000085e+01 5.233290000000000219e+00 1.185900000000000010e-01 5.173840000000000217e+00 5.320439999999999614e+00 3.413999999999999813e-01 1.061764999999999937e+01 5.111259999999999692e+00 6.022140000000000271e+00 5.632749999999999702e+00 5.029060000000000308e+00 5.200230000000000352e+00 1.051135000000000019e+01 1.038888999999999996e+01 8.490000000000000324e-02 5.192479999999999762e+00 7.426000000000000656e-02 1.038359999999999950e+01 1.066365000000000052e+01 3.605599999999999916e-01 5.011940000000000062e+00 5.000219999999999665e+00 1.034398999999999980e+01 5.075650000000000439e+00 2.436300000000000132e-01 4.345399999999999707e+00 3.687069999999999848e+00 3.401370000000000005e+00 4.016289999999999694e+00 4.082659999999999734e+00 9.095319999999999183e+00 3.747349999999999959e+00 8.667920000000000513e+00 3.561770000000000103e+00 3.606980000000000075e+00 9.214430000000000121e+00 8.929790000000000560e+00 9.781019999999999825e+00 3.398260000000000058e+00 5.800329999999999764e+00 9.386540000000000106e+00 3.401530000000000165e+00 9.643699999999999495e-01 8.992340000000000444e+00 8.338369999999999393e+00 3.922530000000000072e+00 3.802080000000000126e+00 1.671149999999999913e+00 1.442849999999999966e+00 4.046299999999999564e+00 1.281870000000000065e+00 6.928840000000000110e+00 3.538549999999999862e+00 6.968350000000000044e+00 1.749719999999999942e+00 4.198249999999999815e+00 6.788689999999999891e+00 7.412700000000000067e+00 8.575680000000000192e+00 3.598910000000000053e+00 3.457269999999999843e+00 9.609970000000000567e+00 1.180509999999999948e+00 6.974300000000000388e+00 1.413769999999999971e+00 9.781560000000000699e+00 1.079429999999999890e+00 9.466639999999999944e+00 6.561130000000000351e+00 9.682850000000000179e+00 3.867579999999999796e+00 8.537099999999999689e-01 3.902019999999999822e+00 3.263669999999999849e+00 1.424809999999999910e+00 9.149910000000000210e+00 3.520220000000000127e+00 6.284029999999999561e+00 4.478150000000000297e+00 1.578109999999999902e+00 7.022389999999999688e+00 9.079380000000000450e+00 8.148210000000000619e+00 1.111539999999999973e+00 4.578030000000000044e+00 8.767490000000000450e+00 1.033860000000000001e+00 9.813449999999999562e+00 9.154540000000000788e+00 5.882839999999999847e+00 3.962930000000000064e+00 9.128819999999999268e+00 8.862880000000000535e+00 9.097989999999999355e+00 3.503159999999999830e+00 4.312890000000000335e+00 8.464099999999999957e-01 4.185500000000000220e+00 4.104320000000000412e+00 6.198719999999999786e+00 4.067949999999999733e+00 9.503059999999999619e+00 1.096950000000000092e+00 3.206090000000000106e+00 9.232369999999999521e+00 6.171549999999999869e+00 8.687229999999999563e+00 6.283879999999999910e+00 1.659329999999999972e+00 8.857419999999999405e+00 3.436980000000000146e+00 8.831979999999999720e+00 9.357570000000000832e+00 9.386749999999999261e+00 1.359259999999999913e+00 8.518219999999999459e+00 9.073650000000000659e+00 6.181829999999999714e+00 1.173540000000000028e+00 9.701349999999999696e+00 3.824600000000000222e+00 7.372600000000000264e-01 1.696960000000000024e+00 9.848670000000000258e+00 1.340610000000000079e+00 6.295250000000000234e+00 6.370059999999999611e+00 8.834600000000000231e-01 6.402929999999999566e+00 1.291590000000000016e+00 5.679319999999999702e+00 2.109370000000000189e+00 4.867110000000000269e+00 5.950440000000000396e+00 1.717770000000000019e+00 9.287710000000000576e+00 6.389590000000000103e+00 7.049059999999999881e+00 3.820860000000000145e+00 4.039880000000000138e+00 7.019029999999999880e+00 9.877980000000000871e+00 1.351189999999999891e+00 3.854260000000000019e+00 1.555620000000000003e+00 1.592410000000000103e+00 3.843030000000000168e+00 6.773019999999999818e+00 1.792419999999999902e+00 1.838969999999999994e+00 3.184790000000000010e+00 9.156900000000000039e-01 9.028299999999999770e+00 6.358950000000000102e+00 6.269860000000000433e+00 3.861720000000000041e+00 1.288980000000000015e+00 6.770859999999999879e+00 3.515699999999999825e+00 7.099079999999999835e+00 6.683329999999999771e+00 9.219210000000000349e+00 1.085979999999999945e+00 6.103460000000000107e+00 8.713419999999999277e+00 5.789979999999999905e+00 1.885580000000000034e+00 4.199480000000000324e+00 3.905460000000000154e+00 1.209719999999999906e+00 4.086560000000000414e+00 9.855990000000000251e+00 1.145860000000000101e+00 6.480100000000000193e+00 3.624039999999999928e+00 1.188809999999999922e+00 9.722910000000000608e+00 9.179790000000000560e+00 6.437240000000000073e+00 4.736979999999999968e+00 4.433790000000000120e+00 6.593759999999999621e+00 4.183639999999999581e+00 9.528990000000000293e+00 5.965580000000000105e+00 9.872719999999999274e+00 3.497850000000000126e+00 6.121730000000000338e+00 9.433270000000000266e+00 9.304109999999999658e+00 9.616229999999999833e+00 1.108610000000000095e+00 2.355690000000000062e+00 1.384349999999999969e+00 1.249270000000000103e+00 6.130230000000000068e+00 7.013530000000000264e+00 6.936580000000000190e+00 9.099679999999999325e+00 9.247370000000000090e+00 6.075540000000000163e+00 6.955890000000000128e+00 6.775439999999999685e+00 1.271959999999999980e+00 1.598039999999999905e+00 6.613929999999999865e+00 5.526100000000000456e-01 6.761280000000000179e+00 6.200820000000000221e+00 6.275389999999999802e+00 1.367860000000000076e+00 6.721589999999999954e+00 6.246120000000000339e+00 6.692580000000000418e+00
5.348650000000000126e+00 2.733210000000000139e+00 2.647600000000000176e+00 5.182210000000000427e+00 2.658389999999999809e+00 8.129269999999999996e+00 5.367810000000000414e+00 8.124470000000000525e+00 3.074669999999999792e+00 5.146329999999999849e+00 7.943399999999999572e+00 8.231270000000000309e+00 1.038843999999999923e+01 2.872729999999999784e+00 2.655040000000000067e+00 6.987000000000000155e-02 2.851329999999999920e+00 8.113110000000000710e+00 1.433099999999999929e-01 7.668289999999999829e+00 2.822760000000000158e+00 2.760099999999999776e-01 8.137420000000000542e+00 7.541520000000000223e+00 2.869489999999999874e+00 2.054600000000000037e-01 2.332969999999999988e+00 2.480729999999999880e+00 4.216999999999999915e-02 8.159319999999999240e+00 2.946299999999999919e+00 5.070500000000000007e+00 2.374890000000000168e+00 2.836199999999999832e+00 5.643550000000000288e+00 8.227600000000000691e+00 7.806499999999999773e+00 1.202199999999999935e-01 2.837099999999999955e+00 7.754139999999999588e+00 1.018003999999999998e+01 8.178789999999999338e+00 7.866189999999999571e+00 4.955000000000000071e+00 2.320580000000000087e+00 7.859549999999999592e+00 5.797889999999999766e+00 8.060470000000000468e+00 2.287920000000000176e+00 3.167920000000000069e+00 5.121400000000000396e+00 2.300850000000000062e+00 2.568189999999999973e+00 1.075913000000000075e+01 2.953370000000000051e+00 7.877550000000000274e+00 5.204559999999999853e+00 2.723380000000000134e+00 8.179190000000000182e+00 4.473500000000000254e-01 7.592749999999999666e+00 2.108769999999999811e+00 5.465080000000000382e+00 7.846630000000000216e+00 2.615720000000000045e+00 1.027613000000000021e+01 8.046150000000000801e+00 7.930299999999999905e+00 5.009129999999999860e+00 7.984539999999999971e+00 7.851259999999999906e+00 6.092199999999999838e-01 5.067450000000000010e+00 1.306000000000000043e-02 5.817890000000000228e+00 5.054890000000000327e+00 2.609199999999999853e-01 1.030043000000000042e+01 5.492399999999999949e+00 5.574349999999999916e+00 5.537720000000000198e+00 5.454340000000000188e+00 5.387389999999999901e+00 1.050563000000000002e+01 9.170999999999999985e-02 5.584999999999999687e-02 5.212530000000000108e+00 1.019703999999999944e+01 1.022143999999999942e+01 2.010699999999999987e-01 9.761559999999999349e+00 4.720139999999999780e+00 5.172640000000000349e+00 1.042154000000000025e+01 5.626540000000000319e+00 1.062523000000000017e+01 3.676489999999999814e+00 4.522870000000000168e+00 4.011750000000000149e+00 4.197199999999999598e+00 4.238319999999999865e+00 9.317030000000000811e+00 3.740909999999999958e+00 9.365410000000000679e+00 4.176660000000000039e+00 3.726620000000000044e+00 9.440960000000000463e+00 9.617919999999999803e+00 8.960000000000000853e+00 3.096810000000000063e+00 3.915360000000000174e+00 9.540150000000000574e+00 4.751140000000000363e+00 8.942289999999999850e+00 1.113560000000000105e+00 9.889849999999999142e+00 3.655969999999999942e+00 3.995929999999999982e+00 1.465940000000000021e+00 8.839200000000000390e-01 3.545240000000000169e+00 1.042499999999999982e+00 6.448089999999999655e+00 4.072700000000000209e+00 6.747860000000000191e+00 1.807709999999999928e+00 4.810599999999999987e+00 6.285160000000000302e+00 7.284500000000000419e+00 8.821460000000000079e+00 1.075479999999999992e+00 1.101050000000000084e+00 8.607169999999999987e+00 9.088699999999999557e-01 6.252250000000000085e+00 9.062200000000000699e+00 6.276440000000000019e+00 1.728520000000000056e+00 9.800929999999999254e+00 6.296599999999999753e+00 7.078400000000000247e+00 3.883459999999999912e+00 1.561860000000000026e+00 3.570899999999999963e+00 3.700800000000000090e+00 1.339520000000000044e+00 9.057280000000000442e+00 4.575280000000000236e+00 6.927310000000000301e+00 4.505679999999999907e+00 4.086630000000000429e+00 6.874579999999999913e+00 9.585309999999999775e+00 9.066480000000000317e+00 9.508919999999999817e+00 4.132249999999999979e+00 9.169850000000000279e+00 1.940720000000000001e+00 9.127060000000000173e+00 9.734009999999999607e+00 6.698909999999999698e+00 4.254999999999999893e+00 9.190060000000000784e+00 7.061790000000000234e+00 9.833429999999999893e+00 3.780310000000000059e+00 4.170580000000000176e+00 9.732499999999999485e-01 3.126900000000000013e+00 4.245739999999999625e+00 6.851259999999999906e+00 4.049710000000000143e+00 9.245540000000000092e+00 1.539679999999999938e+00 3.387710000000000221e+00 9.026099999999999568e+00 6.856720000000000148e+00 8.959479999999999222e+00 4.030459999999999710e+00 7.566699999999999537e-01 8.320600000000000662e+00 3.925009999999999888e+00 6.103309999999999569e+00 9.450079999999999814e+00 8.891299999999999315e+00 1.463759999999999950e+00 8.868019999999999570e+00 9.145220000000000127e+00 7.145959999999999646e+00 5.099200000000000399e-01 2.099720000000000031e+00 4.322510000000000296e+00 1.378600000000000048e+00 1.309860000000000024e+00 9.519989999999999952e+00 2.151470000000000216e+00 7.258040000000000269e+00 3.466969999999999885e+00 1.544229999999999992e+00 6.926870000000000083e+00 9.330230000000000246e+00 6.145850000000000257e+00 1.059409999999999963e+00 4.132760000000000211e+00 6.532770000000000188e+00 1.472529999999999895e+00 9.444910000000000139e+00 7.128659999999999997e+00 6.699919999999999654e+00 3.659829999999999917e+00 6.415040000000000298e+00 6.814259999999999984e+00 9.219049999999999301e+00 1.086980000000000057e+00 3.955890000000000128e+00 1.407599999999999962e+00 4.807299999999999907e-01 3.694040000000000212e+00 6.351750000000000007e+00 1.540089999999999959e+00 9.513489999999999114e+00 1.091220000000000079e+00 1.085320000000000062e+00 9.415509999999999380e+00 9.061579999999999302e+00 6.521510000000000140e+00 3.802490000000000148e+00 8.880700000000000260e-01 5.638460000000000250e+00 3.812399999999999789e+00 6.503630000000000244e+00 6.772780000000000022e+00 9.134259999999999380e+00 2.069669999999999899e+00 6.149099999999999788e+00 9.196770000000000778e+00 6.974039999999999573e+00 1.055290000000000061e+00 4.305679999999999730e+00 3.975130000000000052e+00 1.568500000000000005e+00 4.416760000000000019e+00 9.749439999999999884e+00 5.709100000000000286e-01 8.621069999999999567e+00 5.610170000000000101e+00 8.885350000000000747e+00 9.416819999999999524e+00 9.729129999999999612e+00 6.307010000000000005e+00 4.051149999999999807e+00 3.657220000000000137e+00 6.922060000000000102e+00 4.056869999999999976e+00 9.017490000000000450e+00 6.490179999999999616e+00 9.068730000000000402e+00 4.482109999999999594e+00 6.428060000000000329e+00 9.362719999999999487e+00 9.721130000000000493e+00 1.439640000000000031e+00 1.360090000000000021e+00 1.709950000000000081e+00 1.252040000000000042e+00 9.017399999999999860e-01 6.827919999999999767e+00 1.098330000000000028e+00 6.571769999999999889e+00 1.320619999999999905e+00 1.779979999999999896e+00 6.868680000000000341e+00 6.697779999999999845e+00 6.193760000000000154e+00 9.756899999999999462e-01 1.535269999999999913e+00 6.096309999999999896e+00 1.348149999999999959e+00 6.960309999999999775e+00 6.678239999999999732e+00 6.580659999999999954e+00 1.062810000000000032e+00 7.196449999999999569e+00 6.579780000000000406e+00 6.152960000000000207e+00
5.251699999999999591e+00 2.949840000000000018e+00 3.297010000000000218e+00 5.355559999999999654e+00 2.590640000000000054e+00 8.387620000000000076e+00 5.603950000000000209e+00 8.194509999999999295e+00 2.714920000000000222e+00 5.232610000000000205e+00 7.660129999999999661e+00 7.805670000000000108e+00 1.378399999999999903e-01 2.651710000000000012e+00 2.568509999999999849e+00 1.704900000000000027e-01 2.554520000000000124e+00 8.237920000000000798e+00 9.982189999999999230e+00 7.687170000000000059e+00 2.225260000000000016e+00 1.042924999999999969e+01 7.997939999999999827e+00 7.795289999999999608e+00 3.404549999999999965e+00 5.895000000000000240e-02 2.466450000000000031e+00 2.337009999999999810e+00 1.009450999999999965e+01 8.093209999999999127e+00 2.829229999999999912e+00 5.403509999999999813e+00 2.783669999999999867e+00 2.680709999999999926e+00 5.089380000000000237e+00 7.901749999999999829e+00 8.002760000000000318e+00 2.496099999999999985e-01 3.134590000000000209e+00 7.839660000000000295e+00 1.847399999999999876e-01 8.586800000000000210e+00 7.540530000000000399e+00 5.434379999999999988e+00 2.253150000000000208e+00 7.759769999999999612e+00 5.604669999999999597e+00 8.192740000000000578e+00 2.106189999999999785e+00 2.237740000000000062e+00 5.397179999999999644e+00 2.906050000000000022e+00 2.302630000000000177e+00 1.066150999999999982e+01 2.149140000000000050e+00 8.335060000000000358e+00 4.940240000000000187e+00 2.459999999999999964e+00 7.777020000000000266e+00 1.100000000000000039e-04 7.994340000000000224e+00 2.993219999999999992e+00 5.390839999999999854e+00 7.538649999999999629e+00 2.609780000000000211e+00 4.396499999999999853e-01 7.681639999999999802e+00 8.321039999999999992e+00 5.146239999999999704e+00 7.776360000000000383e+00 8.022259999999999280e+00 1.055340999999999951e+01 5.128540000000000099e+00 2.421399999999999941e-01 5.646690000000000431e+00 5.193889999999999674e+00 1.025539000000000023e+01 3.660999999999999671e-02 4.798020000000000174e+00 5.581030000000000157e+00 5.362899999999999778e+00 4.669260000000000410e+00 4.801199999999999690e+00 1.061999999999999923e-02 9.954599999999999227e+00 4.571600000000000108e-01 6.197079999999999700e+00 3.185200000000000253e-01 1.469699999999999895e-01 2.833899999999999753e-01 1.033985000000000021e+01 5.618129999999999846e+00 5.097369999999999735e+00 6.137000000000000094e-02 4.703780000000000072e+00 1.064981000000000044e+01 3.860069999999999890e+00 4.073249999999999815e+00 4.641610000000000014e+00 3.676689999999999792e+00 3.597129999999999939e+00 9.270599999999999952e+00 6.128400000000000070e+00 9.758330000000000837e+00 3.603829999999999867e+00 6.299129999999999896e+00 6.229999999999999982e-01 7.616620000000000168e+00 9.045009999999999550e+00 2.170690000000000008e+00 3.820530000000000204e+00 9.107440000000000424e+00 4.670510000000000161e+00 9.211149999999999949e+00 9.365309999999999135e+00 9.006569999999999965e+00 6.683099999999999596e-01 4.665250000000000341e+00 1.360600000000000032e+00 1.354389999999999983e+00 3.640210000000000168e+00 1.134409999999999918e+00 6.632679999999999687e+00 3.184330000000000105e+00 6.148900000000000254e+00 9.952289999999999637e+00 1.687740000000000018e+00 8.333449999999999136e+00 8.922710000000000363e+00 9.225899999999999324e+00 1.016129999999999978e+00 1.709759999999999946e+00 8.736110000000000042e+00 1.932700000000000085e+00 7.283760000000000012e+00 6.255930000000000213e+00 6.883210000000000051e+00 1.399310000000000054e+00 1.032960000000000100e+00 5.913789999999999658e+00 9.471170000000000755e+00 3.786360000000000170e+00 1.403759999999999897e+00 4.046979999999999578e+00 9.401839999999999975e+00 1.832710000000000061e+00 1.016170999999999935e+01 3.550749999999999851e+00 5.995440000000000325e+00 1.274929999999999897e+00 3.804149999999999920e+00 6.626809999999999867e+00 6.726409999999999556e+00 8.700889999999999347e+00 8.691200000000000259e+00 3.220000000000000195e+00 8.876369999999999649e+00 6.506969999999999921e+00 8.377599999999999492e-01 9.268620000000000303e+00 5.909159999999999968e+00 3.317860000000000031e+00 8.955239999999999867e+00 7.182249999999999801e+00 8.849849999999999994e+00 3.747279999999999944e+00 3.911810000000000009e+00 1.695119999999999960e+00 4.315279999999999561e+00 4.004629999999999690e+00 7.077659999999999840e+00 4.533839999999999648e+00 1.286980000000000013e+00 9.596209999999999241e+00 4.071069999999999744e+00 8.894909999999999428e+00 3.786220000000000141e+00 9.139340000000000686e+00 3.806799999999999962e+00 1.621899999999999897e+00 9.091340000000000643e+00 4.542849999999999611e+00 6.241089999999999804e+00 1.005649999999999977e+01 1.611700000000000077e-01 9.115790000000000504e+00 8.637700000000000600e+00 9.561740000000000350e+00 7.180039999999999978e+00 1.592370000000000063e+00 9.263170000000000570e+00 3.221109999999999918e+00 1.297520000000000007e+00 1.376169999999999893e+00 7.171429999999999971e+00 9.128349999999999298e+00 7.111760000000000304e+00 6.093020000000000103e+00 1.337290000000000090e+00 3.099190000000000111e+00 9.732969999999999899e+00 8.156459999999999155e+00 9.517000000000000459e-02 5.188220000000000276e+00 1.155750000000000055e+00 3.853899999999999881e+00 7.117180000000000284e+00 6.509579999999999700e+00 4.601689999999999614e+00 3.944650000000000212e+00 6.079180000000000028e+00 6.566639999999999588e+00 9.606310000000000571e+00 9.091599999999999682e-01 5.997480000000000366e+00 1.423669999999999991e+00 1.236539999999999973e+00 6.657549999999999635e+00 6.595729999999999649e+00 4.216569999999999929e+00 8.897240000000000038e+00 1.308300000000000018e+00 3.321860000000000035e+00 9.010669999999999291e+00 6.962530000000000108e+00 6.174739999999999895e+00 4.336949999999999861e+00 1.453650000000000109e+00 3.560039999999999871e+00 6.575260000000000105e+00 4.085519999999999818e+00 6.394440000000000346e+00 3.883480000000000043e+00 9.958729999999999194e+00 5.965480000000000338e+00 8.874060000000000059e+00 6.138799999999999812e+00 1.194039999999999990e+00 3.997640000000000082e+00 4.205180000000000362e+00 8.499700000000000033e-01 1.302389999999999937e+00 4.239110000000000156e+00 2.076020000000000199e+00 7.696600000000000108e-01 9.762109999999999843e+00 1.462620000000000031e+00 9.090849999999999653e+00 9.898799999999999821e-01 7.039550000000000196e+00 1.895250000000000101e+00 2.393780000000000019e+00 6.959670000000000023e+00 3.669230000000000214e+00 7.356419999999999959e+00 6.225080000000000169e+00 1.871809999999999974e+00 5.062839999999999563e+00 6.925440000000000040e+00 9.031169999999999476e+00 9.082060000000000244e+00 1.862409999999999899e+00 1.689210000000000100e+00 1.594700000000000006e+00 6.758200000000000429e+00 1.375510000000000010e+00 9.938269999999999271e+00 9.277699999999999836e-01 7.016000000000000014e+00 3.973019999999999996e+00 8.485599999999999810e-01 9.404220000000000468e+00 6.282329999999999970e+00 6.766610000000000014e+00 9.675110000000000099e+00 1.336710000000000065e+00 6.724529999999999674e+00 6.558609999999999829e+00 6.487989999999999924e+00 6.508490000000000109e+00 7.042019999999999946e+00 3.889470000000000205e+00 4.393119999999999692e+00 9.074230000000000018e+00 9.376530000000000697e+00
5.424009999999999998e+00 2.171609999999999818e+00 2.598510000000000097e+00 5.487499999999999822e+00 2.775780000000000136e+00 7.973309999999999675e+00 5.016680000000000028e+00 7.851989999999999803e+00 2.629070000000000018e+00 5.256450000000000067e+00 7.686639999999999695e+00 7.914469999999999672e+00 1.001268999999999920e+01 3.246630000000000127e+00 2.849689999999999834e+00 1.004424999999999990e+01 2.715090000000000003e+00 8.080579999999999430e+00 1.243699999999999944e-01 7.707900000000000418e+00 2.323179999999999801e+00 9.847369999999999735e+00 7.929009999999999891e+00 8.140280000000000626e+00 2.761969999999999814e+00 2.752100000000000102e-01 2.540439999999999809e+00 2.582139999999999880e+00 1.375099999999999933e-01 8.005409999999999471e+00 2.482050000000000090e+00 5.105269999999999975e+00 2.616449999999999942e+00 2.808469999999999800e+00 5.658459999999999823e+00 7.878989999999999938e+00 7.781930000000000014e+00 1.031736000000000075e+01 2.520900000000000141e+00 7.814029999999999809e+00 1.491599999999999870e-01 8.006819999999999382e+00 7.725249999999999950e+00 5.092760000000000176e+00 2.741239999999999899e+00 7.988629999999999676e+00 4.942210000000000214e+00 8.092299999999999827e+00 2.614580000000000126e+00 2.845930000000000071e+00 5.148659999999999570e+00 2.398330000000000073e+00 2.489320000000000199e+00 1.058188999999999957e+01 2.619229999999999947e+00 8.017099999999999227e+00 5.236040000000000028e+00 2.765779999999999905e+00 7.847949999999999982e+00 1.055479000000000056e+01 7.697820000000000107e+00 2.144299999999999873e+00 5.024709999999999788e+00 8.088020000000000209e+00 2.428459999999999841e+00 2.275200000000000000e-01 7.998240000000000016e+00 8.057439999999999714e+00 5.311619999999999564e+00 7.145459999999999923e+00 7.516029999999999767e+00 3.363900000000000223e-01 4.896569999999999645e+00 1.397999999999999937e-02 5.506809999999999761e+00 5.176569999999999894e+00 8.329999999999999905e-02 1.016488999999999976e+01 5.484250000000000291e+00 5.487969999999999793e+00 5.350469999999999615e+00 4.943050000000000388e+00 4.892660000000000231e+00 1.058469000000000015e+01 2.358800000000000063e-01 2.267000000000000126e-01 5.253669999999999618e+00 1.030805999999999933e+01 1.014575999999999922e+01 1.064799000000000007e+01 3.184699999999999753e-01 5.797749999999999737e+00 5.484479999999999578e+00 2.954200000000000159e-01 5.237449999999999939e+00 1.045789000000000080e+01 3.925339999999999829e+00 4.023460000000000036e+00 4.544439999999999813e+00 4.009360000000000035e+00 7.024359999999999715e+00 9.236019999999999897e+00 4.617869999999999919e+00 8.887819999999999609e+00 4.576290000000000191e+00 3.578199999999999825e+00 9.524850000000000705e+00 9.746349999999999625e+00 6.679319999999999702e+00 1.205589999999999939e+00 1.254129999999999967e+00 9.112080000000000624e+00 3.625340000000000007e+00 9.648970000000000269e+00 9.637199999999999989e+00 7.847999999999999865e+00 4.185139999999999638e+00 3.742910000000000181e+00 1.100740000000000052e+00 4.158210000000000406e+00 3.403350000000000097e+00 4.072129999999999583e+00 9.611589999999999634e+00 1.267279999999999962e+00 6.464150000000000063e+00 9.436499999999999888e-01 3.829680000000000195e+00 7.263080000000000425e+00 6.544520000000000337e+00 9.024169999999999803e+00 1.571649999999999991e+00 1.628840000000000066e+00 9.184260000000000090e+00 1.816599999999999993e+00 6.300489999999999924e+00 6.088429999999999787e+00 6.188920000000000421e+00 1.695589999999999931e+00 8.828079999999999927e+00 6.657659999999999911e+00 6.620120000000000005e+00 4.266939999999999955e+00 1.592430000000000012e+00 6.340049999999999741e+00 3.841470000000000162e+00 1.649759999999999893e+00 9.013740000000000308e+00 4.285660000000000025e+00 6.535470000000000113e+00 4.170589999999999797e+00 6.404690000000000438e+00 6.558980000000000032e+00 9.105850000000000222e+00 8.815049999999999386e+00 3.836800000000000210e-01 4.126199999999999868e+00 9.052440000000000708e+00 8.020100000000000007e-01 9.214589999999999392e+00 9.376010000000000844e+00 4.964590000000000281e+00 3.506019999999999914e+00 8.995309999999999917e+00 8.807489999999999597e+00 9.853270000000000195e+00 4.018909999999999982e+00 4.080320000000000391e+00 1.633639999999999981e+00 4.784740000000000215e+00 4.453829999999999956e+00 7.410999999999999588e+00 3.496820000000000039e+00 8.833019999999999428e+00 1.940280000000000005e+00 4.004410000000000025e+00 9.323579999999999757e+00 7.153410000000000046e+00 9.184390000000000498e+00 4.358189999999999564e+00 1.291139999999999954e+00 9.558559999999999945e+00 4.419369999999999798e+00 6.886849999999999916e+00 9.374610000000000554e+00 9.365370000000000417e+00 2.057650000000000201e+00 9.562960000000000349e+00 9.424329999999999430e+00 6.966370000000000395e+00 8.782799999999999496e-01 1.590840000000000032e+00 4.094759999999999955e+00 1.175750000000000073e+00 1.847190000000000110e+00 9.415720000000000312e+00 1.482120000000000104e+00 6.800900000000000389e+00 4.072720000000000340e+00 1.435710000000000042e+00 6.782510000000000261e+00 9.134069999999999467e+00 6.578979999999999606e+00 7.644900000000000029e-01 3.936150000000000038e+00 6.790689999999999671e+00 1.634660000000000002e+00 9.229620000000000601e+00 7.103780000000000427e+00 6.710309999999999775e+00 4.207329999999999792e+00 9.191610000000000724e+00 6.016820000000000057e+00 9.298339999999999606e+00 1.187599999999999989e+00 3.712000000000000188e+00 1.168269999999999920e+00 2.101160000000000139e+00 4.926639999999999908e+00 5.986620000000000275e+00 1.106479999999999908e+00 8.733599999999999142e+00 7.531600000000000517e-01 1.911110000000000086e+00 9.872870000000000701e+00 5.722550000000000026e+00 6.501389999999999780e+00 3.753670000000000062e+00 1.150349999999999984e+00 6.989209999999999923e+00 4.100200000000000067e+00 6.509500000000000064e+00 5.834850000000000314e+00 8.787929999999999353e+00 1.002580000000000027e+00 7.265900000000000247e+00 9.715090000000000003e+00 6.177880000000000038e+00 1.004930000000000101e+00 4.136750000000000149e+00 3.819900000000000073e+00 1.178230000000000111e+00 4.562689999999999912e+00 8.931340000000000501e+00 1.481079999999999952e+00 9.485070000000000334e+00 3.418179999999999996e+00 1.171319999999999917e+00 9.451869999999999550e+00 9.200340000000000629e+00 6.663829999999999920e+00 3.679240000000000066e+00 3.569380000000000219e+00 6.518010000000000304e+00 3.929219999999999935e+00 9.158350000000000435e+00 6.897429999999999950e+00 8.677350000000000563e+00 3.114269999999999872e+00 6.279239999999999711e+00 9.338939999999999131e+00 8.914170000000000371e+00 1.379809999999999981e+00 1.330200000000000049e+00 1.304329999999999989e+00 1.385510000000000019e+00 2.171300000000000008e+00 6.986320000000000086e+00 8.544719999999999871e+00 6.883339999999999570e+00 1.594940000000000024e+00 9.463300000000000045e-01 7.236049999999999649e+00 6.806630000000000180e+00 4.112000000000000099e+00 1.288189999999999946e+00 1.259959999999999969e+00 6.511669999999999625e+00 1.335129999999999928e+00 6.599239999999999995e+00 3.898070000000000146e+00 6.387739999999999974e+00 9.496700000000000141e-01 6.244259999999999700e+00 6.629419999999999646e+00 6.573089999999999655e+00