2.087562000000000140e+00 3.349247999999999781e+00 -9.215929999999999955e-01 8.216229999999999922e-01 -1.630422999999999956e+00 8.647780000000000467e-01 2.553349999999999786e-01 1.612837000000000076e+00 -2.974999999999999867e-01 -5.568089999999999984e-01 3.667000000000000121e-02 -9.873400000000000232e-02 4.157625000000000348e+00 -3.536522999999999861e+00 -3.184241000000000099e+00 8.828529999999999989e-01 -6.371679999999999566e-01 -8.808510000000000506e-01 -3.448040000000000216e+00 2.597262000000000182e+00 3.653332999999999942e+00 -6.461369999999999614e-01 1.009884000000000004e+00 -1.029827000000000048e+00 -1.547717999999999927e+00 4.287810000000000232e-01 7.053970000000000518e-01 -2.635689999999999977e-01 1.406814999999999927e+00 6.397230000000000416e-01 4.132009999999999850e-01 4.121580000000000243e-01 -2.781197000000000141e+00 -3.047499000000000180e+00 -2.039422000000000068e+00 1.925740999999999925e+00 -1.373863999999999974e+00 -1.793549000000000060e+00 2.924939999999999762e-01 -6.154239999999999711e-01 4.130550000000000055e-01 8.131739999999999524e-01 -1.508164000000000060e+00 2.314468999999999888e+00 7.303500000000000547e-01 -2.286553000000000058e+00 -2.779320000000000124e-01 9.864709999999999868e-01 -2.401073999999999931e+00 -8.365059999999999718e-01 -1.482199000000000044e+00 -3.796965999999999841e+00 -4.055480000000000196e-01 -3.624436000000000213e+00 2.974295000000000133e+00 -3.779440000000000022e-01 8.260370000000000212e-01 3.843659999999999854e-01 8.236109999999999820e-01 -8.798110000000000097e-01 -5.392200000000000326e-01 -3.412211000000000105e+00 1.348522999999999916e+00 1.536027000000000031e+00 -2.109275999999999929e+00 -2.753868000000000205e+00 8.592600000000000238e-01 3.088262999999999980e+00 -1.531641999999999948e+00 -7.544750000000000068e-01 2.696140000000000203e-01 -1.477359000000000089e+00 1.769120000000000026e+00 -3.281801999999999886e+00 5.009625999999999912e+00 4.963679999999999759e-01 -1.972739000000000020e+00 -8.740350000000000064e-01 -2.846920000000000006e-01 -1.350154999999999994e+00 -2.874624999999999986e+00 6.516880000000000450e-01 1.267889999999999961e+00 1.168190999999999979e+00 -1.628991999999999996e+00 1.283679000000000014e+00 2.802385999999999822e+00 -4.243450000000000166e+00 2.465602000000000071e+00 -4.132662999999999975e+00 -1.590399999999999869e-01 2.749110000000000165e-01 2.913657999999999859e+00 9.086379999999999457e-01 -1.951230999999999938e+00 -1.198156999999999917e+00 -1.187284999999999924e+00 -4.502360000000000251e-01 -7.073300000000000420e-02 -6.495969999999999800e-01 6.796379999999999644e-01 -1.303560000000000052e+00 -2.568322999999999912e+00 1.116862000000000021e+00 6.794170000000000487e-01 1.431891000000000025e+00 -5.562190000000000190e-01 -5.761249999999999982e-01 -2.235081000000000095e+00 1.098405000000000076e+00 -1.031031000000000031e+00 -2.391179000000000165e+00 9.526639999999999553e-01 -1.829159999999999953e-01 1.385299999999999865e-01 2.124169000000000196e+00 -1.210836000000000023e+00 5.841840000000000366e-01 -1.467249000000000025e+00 -1.049109999999999987e+00 -6.560449999999999893e-01 1.249390999999999918e+00 -2.872122000000000064e+00 -3.387749999999999928e-01 -2.819960000000000244e-01 -8.131909999999999972e-01 1.009908000000000028e+00 -1.522900000000000087e-01 -1.451831000000000094e+00 -1.361973000000000100e+00 -2.043850000000000111e-01 -8.437989999999999657e-01 -6.711700000000000443e-01 -6.741000000000000325e-01 1.446571999999999969e+00 4.046151000000000053e+00 -2.118383000000000127e+00 2.516976999999999798e+00 -3.129120000000000235e-01 -2.158529999999999838e+00 4.698720000000000119e-01 -1.179184999999999928e+00 1.264420000000000099e+00 1.648044000000000064e+00 3.163750000000000173e-01 1.193237000000000103e+00 2.263380999999999865e+00 8.568299999999999528e-02 7.776260000000000394e-01 3.320690000000000031e-01 1.239713000000000065e+00 -6.701650000000000107e-01 5.810650000000000537e-01 1.178744999999999932e+00 -2.668099999999999916e-01 -1.031244999999999967e+00 -2.106710000000000083e+00 -2.564770000000000105e-01 1.997400000000000009e-01 -4.635050000000000003e-01 4.676199999999999801e-01 1.743239999999999901e+00 -8.402629999999999821e-01 4.995049999999999768e-01 5.010670000000000401e-01 3.245312000000000197e+00 2.631219999999999892e+00 4.215470000000000050e-01 -8.286999999999999228e-03 1.127409000000000106e+00 1.199413999999999980e+00 -1.822560000000000013e-01 -6.051560000000000272e-01 -9.242259999999999920e-01 2.758815999999999935e+00 -4.242060000000000275e-01 -5.467739999999999823e-01 2.992619999999999725e-01 7.965640000000000498e-01 -2.687823999999999991e+00 6.387979999999999769e-01 2.042123000000000133e+00 3.018609999999999904e-01 -1.554542000000000090e+00 -4.107885999999999704e+00 -2.717499999999999916e-01 1.610042999999999891e+00 -3.055370000000000030e-01 2.114028999999999936e+00 1.060230000000000006e+00 -2.188000999999999863e+00 -4.764240000000000141e-01 1.195419000000000009e+00 1.278323000000000098e+00 2.600720000000000254e-01 8.483469999999999622e-01 2.001309000000000005e+00 -3.294569999999999999e-01 2.865975999999999857e+00 8.616179999999999950e-01 -3.333582999999999963e+00 5.583810000000000162e-01 3.620200000000000085e-01 -1.572369999999999879e-01 6.200229999999999908e-01 7.273899999999999810e-02 2.406734999999999847e+00 4.395979999999999888e-01 -2.877399999999999958e-01 7.193370000000000042e-01 2.738617000000000079e+00 -2.789597999999999800e+00 5.816529999999999756e-01 -1.362100000000000088e+00 2.475199999999999970e-02 5.689760000000000373e-01 1.010910999999999893e+00 -7.116489999999999760e-01 6.665879999999999583e-01 -1.299776000000000042e+00 -9.296320000000000139e-01 6.157799999999999940e-01 -2.061138999999999832e+00 -7.102929999999999522e-01 4.800079999999999902e-01 5.464989999999999570e-01 -9.241509999999999447e-01 8.238010000000000055e-01 1.036939000000000055e+00 1.251077999999999912e+00 -9.089310000000000445e-01 3.614060000000000050e-01 -1.906023000000000023e+00 7.193999999999999874e-03 -1.676665000000000072e+00 -2.440873999999999988e+00 2.453250000000000153e+00 -2.819341000000000097e+00 -2.425572999999999979e+00 4.614615999999999829e+00 -1.202010000000000023e-01 5.345170000000000199e-01 -2.708420999999999967e+00 6.965200000000000280e-01 2.440529000000000170e+00 1.354627999999999943e+00 -4.422699999999999965e-01 -1.926392000000000104e+00 -1.286850999999999967e+00 1.202811000000000075e+00 -9.000829999999999664e-01 8.371450000000000280e-01 -2.342579999999999940e-01 1.466960000000000042e+00 1.101301000000000085e+00 1.619552000000000103e+00 9.878139999999999699e-01 -1.917416999999999927e+00 1.583078999999999903e+00 4.844439999999999857e-01 4.969850000000000101e-01 1.214042000000000066e+00 1.875534000000000034e+00 2.302839999999999887e-01 2.071255999999999986e+00 -8.046100000000000474e-02 -6.414419999999999566e-01 -7.716859999999999831e-01 -1.617449999999999999e-01 5.644919999999999938e-01 7.780529999999999946e-01 1.524721999999999911e+00 -6.879399999999999959e-01 -4.498840000000000061e-01 1.006764999999999910e+00 -1.338445000000000107e+00 -3.369150000000000200e-01 1.980750000000000011e-01 9.701549999999999896e-01 -1.146983000000000086e+00 1.325781000000000098e+00 -1.383447000000000093e+00 1.300963000000000092e+00 -7.831499999999999573e-02 1.208228999999999997e+00
-1.203286999999999995e+00 -4.249666000000000388e+00 -2.104398000000000213e+00 -1.110406999999999922e+00 3.278452999999999840e+00 -8.820759999999999712e-01 -1.310853000000000046e+00 -1.956360000000000043e-01 -1.713791999999999982e+00 -1.576222999999999930e+00 2.803049000000000124e+00 1.915928999999999993e+00 2.166840999999999795e+00 -1.235662999999999956e+00 -2.398536000000000001e+00 2.404615000000000169e+00 1.700236000000000081e+00 1.002939999999999943e+00 3.275104999999999933e+00 4.847299999999999942e-01 6.839589999999999836e-01 6.023939999999999850e-01 -4.219538000000000011e+00 8.505289999999999795e-01 4.246400000000000174e-01 5.148059999999999858e-01 4.071343999999999852e+00 4.572899999999999743e-01 3.400670000000000082e-01 -1.399451000000000001e+00 -5.021018999999999899e+00 4.975984000000000407e+00 -4.873149999999999982e-01 -1.253508000000000067e+00 7.259759999999999547e-01 1.521001999999999965e+00 -2.092007999999999868e+00 1.795150000000000023e+00 -9.859310000000000018e-01 -1.959861999999999993e+00 1.333539999999999948e+00 1.238820999999999950e+00 -3.515083999999999875e+00 -1.371180000000000065e+00 -1.189579999999999943e-01 3.799488000000000198e+00 -1.377939000000000025e+00 4.788640000000000119e-01 1.309829999999999883e-01 2.044370000000000076e-01 1.176844000000000001e+00 8.202760000000000051e-01 1.555392000000000108e+00 2.172058999999999962e+00 -4.026915999999999940e+00 -9.637379999999999836e-01 1.471899999999999945e-02 1.573857999999999979e+00 -4.322968999999999618e+00 -2.357806000000000068e+00 -3.818804000000000087e+00 4.833571000000000062e+00 -3.280116000000000032e+00 -5.243929999999999980e-01 3.623739000000000043e+00 4.799568999999999974e+00 8.465040000000000342e-01 3.864999999999999686e-02 -6.444210000000000216e-01 2.224270000000000136e-01 9.417499999999999760e-01 -3.124651000000000067e+00 -1.663180000000000103e+00 -6.144299999999999762e-02 -2.889235000000000220e+00 5.836869999999999559e-01 9.324120000000000186e-01 4.100163000000000224e+00 1.735189000000000092e+00 -3.658279999999999976e+00 -5.328819999999999668e-01 -1.263737000000000110e+00 -7.991989999999999927e-01 1.754880000000000051e-01 7.230069999999999553e-01 1.559892000000000056e+00 -1.308014999999999928e+00 1.205759999999999943e+00 1.306575999999999960e+00 -1.482509000000000077e+00 1.781749999999999945e+00 3.038689999999999891e+00 -2.723849999999999882e-01 1.083055000000000101e+00 -9.454019999999999646e-01 -7.033979999999999677e-01 9.142639999999999656e-01 -2.436622999999999983e+00 2.262875999999999888e+00 1.266432000000000002e+00 -6.134070000000000356e-01 -8.317290000000000516e-01 2.238363000000000103e+00 1.120992999999999906e+00 -6.613820000000000254e-01 -5.213370000000000504e-01 -1.859925000000000050e+00 -8.228699999999999903e-02 -3.909272000000000080e+00 1.571242999999999945e+00 -6.873489999999999878e-01 -3.597119999999999762e-01 -2.833225000000000104e+00 -1.005635999999999974e+00 8.349269999999999747e-01 5.440899999999999626e-01 -1.427810000000000024e+00 -2.636188999999999893e+00 4.576299999999999812e-01 -6.694890000000000008e-01 1.199448000000000070e+00 1.434854999999999992e+00 -7.313200000000000256e-02 -2.929689999999999794e-01 -6.811979999999999702e-01 -1.014820999999999973e+00 -1.195435999999999943e+00 -1.463079999999999936e-01 -1.702066999999999997e+00 1.216857999999999995e+00 -2.585499999999999951e-02 3.632369999999999766e-01 3.691797999999999913e+00 -2.773483000000000143e+00 2.996548999999999907e+00 2.639710000000000001e+00 4.034174000000000149e+00 -1.259292000000000078e+00 -2.665410000000000057e+00 1.028029999999999999e+00 -4.407499999999999751e-01 -1.792866999999999988e+00 2.005669000000000146e+00 -2.435589999999999977e-01 3.220177000000000067e+00 2.548707999999999974e+00 3.211870000000000003e-01 -6.334410000000000318e-01 3.013219999999999787e-01 8.660630000000000273e-01 -1.236682000000000059e+00 -7.369350000000000067e-01 1.956728999999999941e+00 -9.654420000000000224e-01 -4.287259999999999960e-01 -9.771199999999999886e-01 6.550989999999999869e-01 -2.176359000000000155e+00 -1.820008000000000070e+00 -1.068702000000000041e+00 -5.763979999999999659e-01 8.259250000000000203e-01 -1.311444000000000054e+00 -1.119108999999999909e+00 6.306490000000000151e-01 1.847806000000000060e+00 -1.698876999999999970e+00 -3.780379999999999852e-01 -1.689073000000000047e+00 -1.979851999999999945e+00 -1.961924999999999919e+00 1.047390999999999961e+00 -1.368510000000000004e-01 -7.281370000000000342e-01 1.738601000000000063e+00 4.416599999999999693e-02 1.289236999999999966e+00 7.038990000000000524e-01 -7.488559999999999661e-01 6.527699999999999614e-01 -1.552912000000000070e+00 1.086069999999999952e-01 2.539724000000000093e+00 9.364050000000000429e-01 3.317749999999999866e-01 1.511036999999999964e+00 1.818599000000000077e+00 -3.103489999999999860e+00 -1.676339999999999941e+00 3.397243000000000013e+00 -3.347875000000000156e+00 2.106456000000000106e+00 -2.092070999999999792e+00 2.457727999999999913e+00 6.222929999999999851e-01 -2.086650000000000116e+00 -1.916750000000000120e-01 2.041030000000000066e-01 -1.007737000000000105e+00 -4.043950000000000045e-01 6.246329999999999938e-01 2.409050999999999831e+00 1.115752000000000077e+00 9.435369999999999591e-01 -2.162742999999999860e+00 -6.203530000000000433e-01 -1.055428999999999951e+00 -5.611289999999999889e-01 -5.442000000000000309e-02 -4.424500000000000099e-01 3.423869999999999969e+00 -1.846159000000000106e+00 -4.392690000000000206e-01 1.580181999999999976e+00 -2.421659999999999924e-01 -6.717090000000000005e-01 1.274820000000000064e+00 -1.134860999999999898e+00 1.449988000000000055e+00 -1.297353999999999896e+00 -6.532949999999999591e-01 -8.460069999999999535e-01 -1.564227000000000034e+00 -7.903270000000000017e-01 -5.984479999999999800e-01 -1.173392999999999908e+00 4.997929999999999873e-01 9.739659999999999984e-01 2.832100000000000173e-01 -2.263590000000000046e-01 1.434999999999999887e-01 1.381612000000000062e+00 -2.205531999999999826e+00 -2.254976000000000091e+00 8.685389999999999500e-01 2.886600000000000277e-01 1.555341000000000085e+00 6.219200000000000284e-01 1.062343999999999955e+00 -6.807210000000000205e-01 -1.704859999999999987e-01 -2.387853999999999921e+00 -1.649737000000000009e+00 4.104499999999999815e-01 6.712669999999999471e-01 1.959027999999999992e+00 1.045640000000000042e-01 2.068684999999999885e+00 6.539449999999999985e-01 1.058326000000000100e+00 8.540689999999999671e-01 4.532640000000000002e-01 -3.891910000000000092e-01 5.752089999999999703e-01 7.875000000000000056e-03 -2.060109999999999997e-01 1.764270000000000005e-01 8.321990000000000220e-01 -2.709759999999999946e-01 -6.862390000000000434e-01 -1.056799999999999962e+00 -1.925556000000000045e+00 3.057529999999999859e+00 -2.165672999999999959e+00 -3.358746000000000009e+00 7.682539999999999925e-01 -3.453590000000000271e-01 1.028100000000000014e+00 1.618732999999999977e+00 -4.960010000000000252e-01 2.294833999999999818e+00 -7.699300000000000033e-01 7.734130000000000171e-01 1.259627000000000052e+00 1.798191000000000095e+00 5.768550000000000066e-01 2.093732000000000149e+00 -1.084950999999999999e+00 -6.316030000000000255e-01 -2.018794999999999895e+00 -2.685744000000000131e+00 2.367329999999999990e-01 -8.414939999999999642e-01 -1.722747000000000028e+00 3.125586000000000197e+00
1.116171000000000024e+00 -3.459189999999999765e-01 -1.109900000000000109e+00 2.791548000000000140e+00 1.545654000000000083e+00 -2.295116999999999852e+00 -1.727214999999999945e+00 3.863099999999999867e-01 -2.848088000000000175e+00 -6.645800000000000318e-02 2.665672999999999959e+00 3.452069999999999861e-01 -5.955380000000000118e-01 -1.144268999999999981e+00 1.318839000000000095e+00 -3.709238000000000035e+00 7.032169999999999810e-01 2.417193000000000147e+00 3.809060999999999808e+00 -3.137392999999999876e+00 -8.221439999999999859e-01 -7.237719999999999709e-01 -2.156867000000000090e+00 -1.793185999999999947e+00 -2.949704000000000104e+00 -1.570284999999999931e+00 2.353407999999999944e+00 3.869299999999999962e-01 1.530950999999999951e+00 -3.275049999999999906e-01 -6.006310000000000038e+00 -2.972297000000000189e+00 1.338799999999999990e+00 -1.201785000000000103e+00 9.566230000000000011e-01 9.923750000000000071e-01 -8.871809999999999974e-01 1.660981999999999958e+00 -1.366230000000000055e+00 2.518243000000000009e+00 3.841219000000000161e+00 6.634179999999999522e-01 6.687530000000000419e-01 2.451874999999999805e+00 8.327930000000000055e-01 -1.491754000000000024e+00 -2.493276999999999965e+00 -1.751945000000000086e+00 1.317865999999999982e+00 1.818732999999999933e+00 -3.791869999999999963e-01 8.436029999999999918e-01 -1.316329000000000082e+00 1.428060000000000107e+00 7.974020000000000552e-01 -7.542780000000000040e-01 -2.198315000000000019e+00 1.784215000000000106e+00 -2.309709999999999930e+00 -6.866659999999999986e-01 -9.381690000000000307e-01 7.864069999999999672e-01 3.200991000000000142e+00 2.335217000000000098e+00 3.369630000000000125e-01 1.405356999999999967e+00 -2.396959999999999924e-01 -1.652357000000000076e+00 2.206871000000000027e+00 -4.013570000000000193e-01 -2.202024999999999899e+00 2.785880000000000134e+00 1.064295999999999909e+00 -4.619999999999999801e-02 3.260629999999999917e-01 2.642936999999999870e+00 -6.409299999999999720e-02 -9.875439999999999774e-01 3.378445000000000142e+00 -1.906160000000000077e-01 1.851619999999999933e-01 1.184153999999999929e+00 3.185271000000000186e+00 2.633469999999999978e-01 -2.314292000000000016e+00 -5.955209999999999670e-01 -1.540214999999999890e+00 -3.012370999999999910e+00 1.436069999999999958e+00 -5.609319999999999862e-01 5.636609999999999676e-01 9.473129999999999606e-01 4.882920000000000038e-01 6.893390000000000351e-01 2.008046999999999915e+00 1.028070999999999957e+00 -1.885570000000000024e-01 -1.908347999999999933e+00 -2.658917999999999893e+00 8.904020000000000268e-01 1.725516999999999967e+00 1.609784000000000104e+00 3.124740000000000073e+00 4.149818999999999924e+00 3.148823999999999845e+00 -3.369302999999999937e+00 2.007817000000000185e+00 -3.111702999999999886e+00 -8.482060000000000155e-01 1.373215999999999992e+00 2.589712000000000014e+00 5.285879999999999468e-01 -1.954755999999999938e+00 4.223649999999999904e-01 1.572389999999999899e-01 -4.003099999999999714e-02 -1.146125999999999978e+00 -1.776184999999999903e+00 -1.208307000000000020e+00 8.200079999999999592e-01 -2.318040000000000100e-01 4.934180000000000232e-01 5.182599999999999707e-02 3.517538000000000054e+00 -1.979737000000000080e+00 -4.823387999999999565e+00 -8.943050000000000166e-01 1.189735999999999905e+00 3.669290000000000052e-01 3.604926999999999992e+00 -6.113600000000000145e-01 -6.870199999999999640e-01 2.418534999999999879e+00 -1.034933000000000103e+00 -1.433964999999999934e+00 2.410934000000000133e+00 -7.169219999999999482e-01 -1.951770999999999923e+00 -9.910449999999999537e-01 -4.510489999999999777e-01 -1.103817000000000048e+00 1.314919999999999978e-01 -1.544190000000000007e-01 -6.083560000000000079e-01 -1.086692999999999909e+00 3.415325999999999862e+00 7.249149999999999761e-01 2.226634999999999920e+00 5.643557000000000379e+00 -1.044826999999999950e+00 6.936579999999999968e-01 -1.148298000000000041e+00 1.987241999999999953e+00 -1.253970000000000029e+00 8.286930000000000129e-01 2.180308999999999831e+00 -9.801809999999999690e-01 -7.283199999999999397e-02 1.101489999999999969e-01 -4.653120000000000034e-01 2.468629999999999991e-01 1.433681999999999901e+00 -9.762589999999999879e-01 1.136751000000000067e+00 7.499540000000000095e-01 5.477659999999999751e-01 -4.005505999999999567e+00 4.858100000000000196e-01 -9.350770000000000470e-01 1.620276000000000050e+00 -1.941340000000000010e-01 -2.881371000000000127e+00 3.967300000000000271e-01 2.423470000000000069e-01 -3.640206000000000053e+00 2.223428000000000182e+00 2.528421999999999947e+00 -7.049469999999999903e-01 4.623570000000000180e-01 -1.054880000000000040e+00 -7.559449999999999781e-01 -1.116648000000000085e+00 -1.295735000000000081e+00 1.786118000000000094e+00 -3.267911999999999928e+00 -2.151146999999999920e+00 3.010890999999999984e+00 -2.264609999999999790e+00 -1.047793999999999892e+00 9.929759999999999698e-01 1.189227999999999952e+00 2.492557000000000134e+00 -6.012279999999999847e-01 -1.552068000000000003e+00 -1.330778999999999934e+00 7.716129999999999933e-01 1.577039999999999997e+00 -8.018119999999999692e-01 -1.561387999999999998e+00 1.719317999999999902e+00 9.962060000000000359e-01 1.132530000000000037e+00 -7.113059999999999938e-01 -1.951581999999999928e+00 2.074222999999999928e+00 1.006370999999999905e+00 -6.385750000000000037e-01 -4.502550000000000163e-01 -2.704979999999999940e+00 1.475489999999999968e+00 1.069698000000000038e+00 -3.166749999999999843e-01 -3.170145000000000213e+00 9.925720000000000098e-01 7.620609999999999884e-01 2.714909999999999823e-01 -5.850689999999999502e-01 -9.274300000000000599e-02 2.147199999999999942e-01 -2.000523999999999969e+00 1.454628000000000032e+00 -1.598794999999999966e+00 2.650868000000000002e+00 -1.414886000000000088e+00 -2.891538000000000164e+00 -2.737939999999999818e-01 -2.735135000000000094e+00 2.993120000000000225e-01 1.342848000000000042e+00 9.410359999999999836e-01 1.842478000000000060e+00 -1.173990000000000089e+00 -9.014680000000000470e-01 -1.594468999999999914e+00 -5.521909999999999874e-01 -9.021899999999999364e-02 1.006950999999999929e+00 -6.338930000000000398e-01 -5.100240000000000329e-01 -7.888579999999999481e-01 6.949870000000000214e-01 -8.661599999999999855e-02 1.718240999999999907e+00 -8.056590000000000140e-01 -1.534836000000000089e+00 1.321693000000000007e+00 -9.507100000000000550e-01 8.952020000000000532e-01 -8.062489999999999934e-01 -2.609449000000000130e+00 1.434520000000000017e+00 -7.207689999999999930e-01 -7.555370000000000141e-01 5.408929999999999572e-01 -1.295310000000000072e-01 -4.846110000000000140e-01 1.213025999999999938e+00 -9.402169999999999694e-01 -1.016181000000000001e+00 -1.449351999999999974e+00 1.332989999999999897e+00 -1.379008000000000012e+00 -1.247834000000000110e+00 2.085160000000000069e-01 4.933359999999999967e-01 -1.472107999999999972e+00 9.427950000000000497e-01 3.032529999999999948e-01 3.211999999999999855e-01 -5.104800000000000310e-02 1.016210000000000030e-01 -5.477119999999999767e-01 7.337550000000000461e-01 1.704569999999999974e-01 -1.246045000000000069e+00 -2.202555999999999958e+00 -2.034612000000000087e+00 -3.136450000000000071e-01 2.287621999999999822e+00 2.022984000000000115e+00 -1.154622999999999955e+00 3.014958000000000027e+00 -1.642965999999999926e+00 -1.259954000000000018e+00 -5.947040000000000104e-01
9.127650000000000485e-01 2.752546000000000159e+00 -1.449148000000000103e+00 -3.648980000000000001e-01 -2.574692000000000203e+00 -2.811471000000000053e+00 2.196509999999999962e+00 -2.375201000000000118e+00 2.508141999999999872e+00 1.364832000000000045e+00 2.060093999999999870e+00 -6.061769999999999659e-01 8.268499999999999739e-01 -3.720816000000000123e+00 -2.755628999999999884e+00 3.780641999999999836e+00 -2.502199999999999980e-01 -2.282935999999999854e+00 -9.990099999999999536e-01 1.662349999999999994e+00 9.304480000000000528e-01 2.675390000000000157e+00 -3.500429000000000013e+00 1.487243000000000093e+00 -3.252507000000000037e+00 -4.783300000000000052e-02 -4.753160000000000163e-01 -1.317929999999999935e-01 1.809995000000000021e+00 -2.084599999999999995e-02 1.332411000000000012e+00 -6.990849999999999564e-01 -1.435732000000000008e+00 -2.221566000000000152e+00 -1.662760000000000016e+00 9.495019999999999571e-01 1.367450000000000054e-01 -4.493989999999999929e-01 8.730699999999999572e-02 -4.169552000000000369e+00 -4.558740000000000014e-01 -4.062568999999999875e+00 -4.434313999999999645e+00 3.241789999999999949e+00 -4.243713999999999764e+00 -1.486264000000000030e+00 2.001110999999999862e+00 -6.545980000000000132e-01 -2.090307999999999833e+00 -1.948105999999999893e+00 2.398807999999999829e+00 1.955524000000000040e+00 1.558459000000000039e+00 3.007731999999999850e+00 2.910579999999999834e-01 4.555649999999999977e-01 -1.212134999999999962e+00 -2.696590000000000042e+00 -1.806883000000000017e+00 1.843841999999999981e+00 -2.610060000000000158e-01 3.185479999999999978e-01 8.394059999999999855e-01 -3.436332000000000164e+00 3.258855000000000057e+00 -7.122119999999999562e-01 2.893859999999999766e-01 -9.546900000000000386e-01 -1.403726000000000029e+00 1.730205999999999911e+00 -2.191520999999999830e+00 -5.462669999999999471e-01 5.643455999999999584e+00 4.676442999999999905e+00 3.725054000000000087e+00 1.992166000000000103e+00 2.780076999999999909e+00 2.061897999999999787e+00 -9.131000000000000227e-03 -3.089183999999999930e+00 -1.361234999999999973e+00 1.447926999999999964e+00 3.139359999999999928e-01 2.588537999999999784e+00 -3.746973999999999805e+00 1.421594000000000024e+00 -1.408633999999999942e+00 1.042929999999999913e+00 1.016385000000000094e+00 1.632568000000000019e+00 -2.264454000000000189e+00 -9.738329999999999487e-01 4.297779999999999934e-01 -1.892505000000000104e+00 -1.006237000000000048e+00 -5.297290000000000054e-01 1.202598999999999974e+00 1.267520000000000036e-01 -1.612205000000000110e+00 -6.905569999999999764e-01 -2.304518999999999984e+00 -1.598505999999999982e+00 -2.914001999999999981e+00 -4.875148000000000259e+00 -4.372009000000000256e+00 -4.296200000000000019e-01 3.103949999999999765e-01 -3.438060000000000005e-01 -1.853534000000000015e+00 -1.289504999999999901e+00 -1.149189999999999934e-01 2.343310000000000115e-01 -7.022540000000000449e-01 -2.443184000000000022e+00 -2.267409999999999981e-01 6.071499999999999814e-02 1.442280999999999924e+00 -2.078359999999999930e-01 1.075374000000000052e+00 -3.348589000000000038e+00 1.764990000000000059e+00 1.307185000000000041e+00 3.946629999999999860e-01 9.890320000000000222e-01 -6.290559999999999485e-01 4.112387000000000015e+00 -1.446406000000000081e+00 -4.705072999999999617e+00 1.291239999999999943e+00 1.953027999999999986e+00 -1.553380000000000039e-01 -4.176099999999999951e-02 6.426539999999999475e-01 -8.872799999999999576e-01 1.848324000000000078e+00 1.389332999999999929e+00 1.552864000000000022e+00 -1.582435000000000036e+00 8.328399999999999692e-02 1.785449999999999982e+00 8.330490000000000395e-01 -4.396927999999999948e+00 4.056693000000000104e+00 2.291669000000000178e+00 1.117749000000000104e+00 -2.074177999999999855e+00 4.688530000000000197e-01 -1.517845000000000111e+00 4.442000000000000115e-02 -2.442582999999999949e+00 2.025027000000000132e+00 -3.012770000000000170e-01 3.076217000000000201e+00 1.646700999999999970e+00 5.571580000000000421e-01 2.165340000000000042e+00 4.037374999999999936e+00 3.423055000000000181e+00 2.523547000000000207e+00 2.272666000000000075e+00 2.525176000000000087e+00 4.749316000000000315e+00 -1.435737000000000041e+00 -1.134068999999999994e+00 -2.389660000000000117e-01 -1.084859999999999935e+00 -1.268491999999999953e+00 1.109720000000000040e+00 -4.099762000000000128e+00 3.482507000000000019e+00 -1.640451000000000104e+00 -8.592720000000000358e-01 9.156159999999999854e-01 -9.395879999999999788e-01 3.237840000000000162e-01 2.902597000000000094e+00 9.139699999999999491e-01 -1.513493999999999895e+00 -1.735162000000000093e+00 -1.499749999999999972e-01 1.600743000000000027e+00 -1.652271999999999963e+00 8.422500000000000542e-01 1.819706000000000046e+00 -6.536939999999999973e-01 -3.014117000000000157e+00 -2.327319999999999944e-01 1.003868999999999900e+00 -2.945539999999999825e-01 1.720545999999999909e+00 2.427686000000000011e+00 -2.781989999999999741e-01 -2.879004000000000119e+00 -2.081936999999999927e+00 -1.854389999999999983e+00 1.102381999999999973e+00 -9.276189999999999714e-01 -1.906600000000000072e+00 1.151631999999999989e+00 1.887102000000000057e+00 1.187572999999999990e+00 -4.281431000000000431e+00 3.297657000000000060e+00 8.407499999999999696e-02 -1.250432999999999906e+00 -2.522111999999999910e+00 7.636180000000000190e-01 -1.295903999999999945e+00 -4.554160000000000430e+00 9.107999999999999430e-02 -3.942140000000000088e-01 2.796025000000000205e+00 -7.850000000000000033e-02 1.727729000000000070e+00 1.960336000000000078e+00 -5.999199999999999672e-02 -3.604680000000000106e-01 -7.202400000000000468e-02 2.171295999999999893e+00 -2.585839999999999805e-01 7.893200000000000216e-01 1.135758999999999963e+00 2.695688999999999780e+00 -1.141699000000000019e+00 3.481234999999999857e+00 2.422749999999999904e-01 -1.430492000000000097e+00 -1.165937999999999919e+00 4.587200000000000305e-02 -1.764987000000000084e+00 -1.565031999999999979e+00 4.264899999999999941e-02 2.317616999999999816e+00 -3.458140000000000214e+00 -1.652924000000000060e+00 -3.337848000000000148e+00 -2.866270000000000207e-01 5.872023000000000437e+00 1.093752999999999975e+00 1.917127999999999943e+00 3.015019999999999922e-01 -3.025580999999999854e+00 -2.420361000000000207e+00 -1.207049000000000039e+00 -1.861790000000000056e+00 8.059229999999999450e-01 1.964670000000000027e-01 9.381080000000000529e-01 -3.190872999999999848e+00 -1.747573000000000043e+00 -2.426512999999999920e+00 3.076312000000000157e+00 1.581519999999999870e-01 1.998631000000000046e+00 1.762312000000000101e+00 -7.780620000000000314e-01 6.660199999999999454e-01 2.887449999999999739e-01 1.599119999999999986e-01 -1.400969999999999993e-01 -1.367039999999999922e-01 1.348281999999999980e+00 -2.820285999999999849e+00 2.045269999999999866e-01 1.066090999999999900e+00 -1.300175999999999998e+00 -1.311695999999999973e+00 1.638217000000000034e+00 3.740609999999999769e-01 -5.201529999999999765e-01 1.914603000000000055e+00 -7.707899999999999474e-02 -2.177630000000000177e+00 2.600399999999999934e-01 -1.530539999999999956e-01 -9.281779999999999475e-01 5.494949999999999557e-01 2.082149999999999945e+00 1.738215999999999983e+00 -2.056449999999999889e+00 1.552443999999999935e+00 2.690440000000000054e-01 1.613267000000000007e+00 3.073049999999999837e+00 1.958800000000000097e+00