1.028533532800000039e+01 0.000000000000000000e+00 0.000000000000000000e+00 3.611573900000000087e-02 1.073957832299999993e+01 0.000000000000000000e+00 -4.536877899999999797e-02 -4.935044100000000183e-02 1.029645124900000042e+01
1.015898793600000083e+01 0.000000000000000000e+00 0.000000000000000000e+00 3.567208499999999921e-02 1.060765090700000002e+01 0.000000000000000000e+00 -4.481145899999999793e-02 -4.874420899999999668e-02 1.016996730600000021e+01
1.028466747499999911e+01 0.000000000000000000e+00 0.000000000000000000e+00 3.611339400000000005e-02 1.073888097400000063e+01 0.000000000000000000e+00 -4.536583300000000124e-02 -4.934723700000000213e-02 1.029578267299999972e+01
1.033415087400000054e+01 0.000000000000000000e+00 0.000000000000000000e+00 3.628714899999999771e-02 1.079054976499999974e+01 0.000000000000000000e+00 -4.558410499999999976e-02 -4.958466499999999999e-02 1.034531955199999942e+01
1.026881009599999928e+01 0.000000000000000000e+00 0.000000000000000000e+00 3.605771299999999818e-02 1.072232326800000024e+01 0.000000000000000000e+00 -4.529588600000000048e-02 -4.927115099999999914e-02 1.027990815599999941e+01
1.008743850799999997e+01 0.000000000000000000e+00 0.000000000000000000e+00 3.542084799999999783e-02 1.053294155999999937e+01 0.000000000000000000e+00 -4.449585300000000188e-02 -4.840090500000000101e-02 1.009834055099999972e+01
1.019690936800000003e+01 0.000000000000000000e+00 0.000000000000000000e+00 3.580524200000000101e-02 1.064724710600000002e+01 0.000000000000000000e+00 -4.497873100000000096e-02 -4.892616200000000221e-02 1.020792972099999929e+01
1.029913484100000076e+01 0.000000000000000000e+00 0.000000000000000000e+00 3.616419399999999673e-02 1.075398728000000048e+01 0.000000000000000000e+00 -4.542964900000000250e-02 -4.941665299999999789e-02 1.031026567600000021e+01
1.028656070299999925e+01 0.000000000000000000e+00 0.000000000000000000e+00 3.612004199999999804e-02 1.074085781600000011e+01 0.000000000000000000e+00 -4.537418399999999796e-02 -4.935632100000000161e-02 1.029767794800000047e+01
1.031708530000000046e+01 0.000000000000000000e+00 0.000000000000000000e+00 3.622722500000000179e-02 1.077273050500000018e+01 0.000000000000000000e+00 -4.550882900000000064e-02 -4.950278200000000212e-02 1.032823553499999925e+01
1.022554521500000035e+01 0.000000000000000000e+00 0.000000000000000000e+00 3.590579299999999835e-02 1.067714763000000033e+01 0.000000000000000000e+00 -4.510504399999999692e-02 -4.906355999999999912e-02 1.023659651700000062e+01
1.010820283700000033e+01 0.000000000000000000e+00 0.000000000000000000e+00 3.549375899999999973e-02 1.055462292700000049e+01 0.000000000000000000e+00 -4.458744500000000333e-02 -4.850053499999999740e-02 1.011912732000000048e+01
1.032384575400000060e+01 0.000000000000000000e+00 0.000000000000000000e+00 3.625096399999999663e-02 1.077978952800000023e+01 0.000000000000000000e+00 -4.553864900000000049e-02 -4.953521999999999786e-02 1.033500329399999984e+01
1.034960103300000078e+01 0.000000000000000000e+00 0.000000000000000000e+00 3.634140000000000287e-02 1.080668226699999934e+01 0.000000000000000000e+00 -4.565225600000000217e-02 -4.965879699999999758e-02 1.036078640899999925e+01
1.023867856999999937e+01 0.000000000000000000e+00 0.000000000000000000e+00 3.595190899999999717e-02 1.069086100900000069e+01 0.000000000000000000e+00 -4.516297500000000104e-02 -4.912657599999999819e-02 1.024974406599999988e+01
1.031847008899999985e+01 0.000000000000000000e+00 0.000000000000000000e+00 3.623208800000000257e-02 1.077417645300000082e+01 0.000000000000000000e+00 -4.551493699999999837e-02 -4.950942600000000221e-02 1.032962181999999984e+01
1.028168729299999917e+01 0.000000000000000000e+00 0.000000000000000000e+00 3.610292899999999888e-02 1.073576917499999972e+01 0.000000000000000000e+00 -4.535268800000000211e-02 -4.933293799999999979e-02 1.029279927099999981e+01
1.020323284200000025e+01 0.000000000000000000e+00 0.000000000000000000e+00 3.582744599999999890e-02 1.065384985100000037e+01 0.000000000000000000e+00 -4.500662400000000202e-02 -4.895650199999999896e-02 1.021426003000000016e+01
1.025857774099999986e+01 0.000000000000000000e+00 0.000000000000000000e+00 3.602178300000000166e-02 1.071163901100000082e+01 0.000000000000000000e+00 -4.525075099999999878e-02 -4.922205500000000067e-02 1.026966474399999996e+01
1.012783948200000061e+01 0.000000000000000000e+00 0.000000000000000000e+00 3.556271099999999685e-02 1.057512680800000027e+01 0.000000000000000000e+00 -4.467406200000000049e-02 -4.859475500000000336e-02 1.013878518799999995e+01
1.019286682499999941e+01 0.000000000000000000e+00 0.000000000000000000e+00 3.579104699999999945e-02 1.064302602799999953e+01 0.000000000000000000e+00 -4.496089899999999862e-02 -4.890676499999999788e-02 1.020388280999999964e+01
1.029405485800000086e+01 0.000000000000000000e+00 0.000000000000000000e+00 3.614635699999999702e-02 1.074868294400000046e+01 0.000000000000000000e+00 -4.540724100000000096e-02 -4.939227899999999727e-02 1.030518020200000073e+01
1.023224921799999976e+01 0.000000000000000000e+00 0.000000000000000000e+00 3.592933300000000080e-02 1.068414770999999952e+01 0.000000000000000000e+00 -4.513461500000000293e-02 -4.909572699999999873e-02 1.024330776500000084e+01
1.022404805400000072e+01 0.000000000000000000e+00 0.000000000000000000e+00 3.590053599999999678e-02 1.067558434899999931e+01 0.000000000000000000e+00 -4.509843999999999659e-02 -4.905637699999999823e-02 1.023509773800000033e+01
1.036590013400000032e+01 0.000000000000000000e+00 0.000000000000000000e+00 3.639863299999999968e-02 1.082370120400000069e+01 0.000000000000000000e+00 -4.572415199999999708e-02 -4.973700200000000238e-02 1.037710312499999965e+01
1.019119107400000068e+01 0.000000000000000000e+00 0.000000000000000000e+00 3.578516300000000178e-02 1.064127626900000045e+01 0.000000000000000000e+00 -4.495350699999999672e-02 -4.889872399999999758e-02 1.020220524800000028e+01
1.013203702999999933e+01 0.000000000000000000e+00 0.000000000000000000e+00 3.557744999999999658e-02 1.057950973700000041e+01 0.000000000000000000e+00 -4.469257799999999670e-02 -4.861489499999999825e-02 1.014298727199999917e+01
1.040888870999999938e+01 0.000000000000000000e+00 0.000000000000000000e+00 3.654958199999999713e-02 1.086858833400000002e+01 0.000000000000000000e+00 -4.591377499999999695e-02 -4.994326699999999952e-02 1.042013816200000065e+01
1.030542555799999960e+01 0.000000000000000000e+00 0.000000000000000000e+00 3.618628299999999964e-02 1.076055582000000044e+01 0.000000000000000000e+00 -4.545739699999999661e-02 -4.944683700000000043e-02 1.031656319100000019e+01
1.036178268099999933e+01 0.000000000000000000e+00 0.000000000000000000e+00 3.638417499999999777e-02 1.081940190799999968e+01 0.000000000000000000e+00 -4.570599000000000189e-02 -4.971724599999999966e-02 1.037298122300000003e+01
1.032560392200000088e+01 0.000000000000000000e+00 0.000000000000000000e+00 3.625713700000000178e-02 1.078162534500000014e+01 0.000000000000000000e+00 -4.554640499999999814e-02 -4.954365599999999842e-02 1.033676336299999932e+01
1.019678296100000026e+01 0.000000000000000000e+00 0.000000000000000000e+00 3.580479799999999879e-02 1.064711511700000024e+01 0.000000000000000000e+00 -4.497817300000000323e-02 -4.892555500000000251e-02 1.020780317800000070e+01
1.011109640799999987e+01 0.000000000000000000e+00 0.000000000000000000e+00 3.550392000000000131e-02 1.055764429100000079e+01 0.000000000000000000e+00 -4.460020800000000230e-02 -4.851441900000000307e-02 1.012202401899999948e+01
1.042520190399999969e+01 0.000000000000000000e+00 0.000000000000000000e+00 3.660686400000000285e-02 1.088562198600000031e+01 0.000000000000000000e+00 -4.598573300000000086e-02 -5.002154000000000322e-02 1.043646898599999950e+01
1.040393905400000030e+01 0.000000000000000000e+00 0.000000000000000000e+00 3.653220199999999973e-02 1.086342007999999915e+01 0.000000000000000000e+00 -4.589194199999999807e-02 -4.991951800000000300e-02 1.041518315599999944e+01
1.015158797900000032e+01 0.000000000000000000e+00 0.000000000000000000e+00 3.564610099999999948e-02 1.059992413800000044e+01 0.000000000000000000e+00 -4.477881699999999854e-02 -4.870870299999999903e-02 1.016255935200000060e+01
1.023166743500000031e+01 0.000000000000000000e+00 0.000000000000000000e+00 3.592729100000000009e-02 1.068354023400000052e+01 0.000000000000000000e+00 -4.513204900000000047e-02 -4.909293499999999727e-02 1.024272535399999917e+01
1.014459317700000085e+01 0.000000000000000000e+00 0.000000000000000000e+00 3.562154000000000015e-02 1.059262041600000082e+01 0.000000000000000000e+00 -4.474796300000000171e-02 -4.867514099999999816e-02 1.015555698999999912e+01
1.021815906700000021e+01 0.000000000000000000e+00 0.000000000000000000e+00 3.587985800000000058e-02 1.066943528000000008e+01 0.000000000000000000e+00 -4.507246399999999958e-02 -4.902812000000000142e-02 1.022920238700000084e+01
1.013248238699999959e+01 0.000000000000000000e+00 0.000000000000000000e+00 3.557901399999999908e-02 1.057997476299999917e+01 0.000000000000000000e+00 -4.469454199999999683e-02 -4.861703199999999753e-02 1.014343311100000022e+01
1.026412108200000084e+01 0.000000000000000000e+00 0.000000000000000000e+00 3.604124799999999795e-02 1.071742716800000039e+01 0.000000000000000000e+00 -4.527520299999999998e-02 -4.924865199999999693e-02 1.027521407499999917e+01
1.032839107500000075e+01 0.000000000000000000e+00 0.000000000000000000e+00 3.626692399999999900e-02 1.078453559000000084e+01 0.000000000000000000e+00 -4.555869900000000111e-02 -4.955702900000000244e-02 1.033955352799999972e+01
1.027575111600000035e+01 0.000000000000000000e+00 0.000000000000000000e+00 3.608208499999999985e-02 1.072957083300000036e+01 0.000000000000000000e+00 -4.532650299999999716e-02 -4.930445499999999703e-02 1.028685667899999956e+01
1.019213227000000010e+01 0.000000000000000000e+00 0.000000000000000000e+00 3.578846699999999742e-02 1.064225903200000012e+01 0.000000000000000000e+00 -4.495765899999999704e-02 -4.890324000000000060e-02 1.020314746100000036e+01
1.022488371400000062e+01 0.000000000000000000e+00 0.000000000000000000e+00 3.590346999999999983e-02 1.067645691499999927e+01 0.000000000000000000e+00 -4.510212599999999933e-02 -4.906038599999999750e-02 1.023593430100000035e+01
1.030157904600000052e+01 0.000000000000000000e+00 0.000000000000000000e+00 3.617277700000000318e-02 1.075653943100000021e+01 0.000000000000000000e+00 -4.544042999999999694e-02 -4.942838100000000040e-02 1.031271252199999999e+01
1.015583173899999991e+01 0.000000000000000000e+00 0.000000000000000000e+00 3.566100199999999720e-02 1.060435531999999981e+01 0.000000000000000000e+00 -4.479753699999999839e-02 -4.872906500000000196e-02 1.016680769799999950e+01
1.014535948500000018e+01 0.000000000000000000e+00 0.000000000000000000e+00 3.562422999999999979e-02 1.059342056700000079e+01 0.000000000000000000e+00 -4.475134299999999898e-02 -4.867881799999999870e-02 1.015632412599999945e+01
1.029396553199999964e+01 0.000000000000000000e+00 0.000000000000000000e+00 3.614604300000000270e-02 1.074858967299999968e+01 0.000000000000000000e+00 -4.540684700000000018e-02 -4.939185000000000103e-02 1.030509078000000045e+01
1.028200330099999960e+01 0.000000000000000000e+00 0.000000000000000000e+00 3.610403899999999749e-02 1.073609914000000032e+01 0.000000000000000000e+00 -4.535408199999999695e-02 -4.933445399999999981e-02 1.029311562100000010e+01
