-9.344786286500000188e+02
-9.342193874600000072e+02
-9.387813356000000340e+02
-9.408080460999999559e+02
-9.244985130100000106e+02
-9.401048832300000413e+02
-9.373168184700000438e+02
-9.404511557900000298e+02
-9.290348728799999662e+02
-9.255869133300000158e+02
-9.260418307899999490e+02
-9.300541273899999624e+02
-9.271408900899999708e+02
-9.250578333500000099e+02
-9.322109366199999840e+02
-9.380188219899999922e+02
-9.387157303100000263e+02
-9.322860021899999765e+02
-9.373410717599999771e+02
-9.369065683699999454e+02
-9.297863476999999648e+02
-9.370726296999999931e+02
-9.310163633199999822e+02
-9.300205525899999657e+02
-9.375310075200000028e+02
-9.335454329799999869e+02
-9.262085484399999586e+02
-9.262018932400000040e+02
-9.362802748699999711e+02
-9.293776443499999687e+02
-9.261239878600000566e+02
-9.406785922499999515e+02
-9.216288887900000191e+02
-9.358688410099999828e+02
-9.310559713400000419e+02
-9.266933743600000071e+02
-9.266876497599999993e+02
-9.388754785500000253e+02
-9.337017268500000000e+02
-9.274658343600000308e+02
-9.290559460199999648e+02
-9.294922116000000187e+02
-9.323630802100000210e+02
-9.239950935800000025e+02
-9.267829344299999548e+02
-9.241864950799999860e+02
-9.400932973300000413e+02
-9.295845464100000299e+02
-9.241992644900000187e+02
-9.382455274699999563e+02
-9.391272857799999656e+02
-9.325551838400000406e+02
-9.279723910100000239e+02
-9.377656382999999778e+02
-9.291435093000000052e+02
-9.341344641900000170e+02
-9.273100391799999898e+02
-9.381935249000000567e+02
-9.305924950200000012e+02
-9.242714426200000162e+02
-9.261496410900000456e+02
-9.288745700199999646e+02
-9.386379232299999558e+02
-9.327440551299999925e+02
-9.278001912700000275e+02
-9.341196116200000006e+02
-9.281334126699999842e+02
-9.269604904699999679e+02
-9.401679768400000512e+02
-9.366458408400000053e+02
-9.394947500600000012e+02
-9.394308806699999650e+02
-9.367914941799999724e+02
-9.290266310900000235e+02
-9.385400178899999446e+02
-9.367616192199999432e+02
-9.330102505800000472e+02
-9.391857069200000296e+02
-9.347228103099999998e+02
-9.308811468400000422e+02
-9.316070869999999786e+02
-9.336096808900000497e+02
-9.389403754600000411e+02
-9.320756598799999892e+02
-9.391114577800000234e+02
-9.283543427299999848e+02
-9.372069420000000264e+02
-9.401895323999999619e+02
-9.379054374700000380e+02
-9.302404509100000496e+02
-9.256804693499999530e+02
-9.269279837499999530e+02
-9.376197371700000076e+02
-9.254601627700000108e+02
-9.400264470399999936e+02
-9.394467831199999637e+02
-9.229880889300000035e+02
-9.407516127500000493e+02
-9.380265540499999588e+02
-9.402080393300000196e+02
