4.678790000000000227e+00 3.090289999999999981e+00 2.503839999999999844e+00 3.805079999999999796e+00 2.943770000000000220e+00 7.822149999999999714e+00 4.557520000000000238e+00 8.343529999999999447e+00 2.706329999999999902e+00 3.825039999999999996e+00 8.241089999999999804e+00 7.863050000000000317e+00 -4.299299999999999788e-01 3.161929999999999907e+00 2.684610000000000163e+00 8.863569999999999283e+00 3.040099999999999802e+00 7.818920000000000314e+00 9.736390000000000100e+00 8.140790000000000859e+00 2.504100000000000215e+00 8.889099999999999113e+00 8.153000000000000469e+00 7.809409999999999741e+00 1.759609999999999896e+00 5.275999999999999579e-01 3.022409999999999819e+00 8.470100000000000406e-01 4.224600000000000022e-01 8.409190000000000609e+00 1.837169999999999970e+00 5.633849999999999802e+00 3.133160000000000167e+00 9.320199999999999596e-01 5.589480000000000004e+00 8.419109999999999872e+00 6.828299999999999592e+00 4.802000000000000157e-01 3.064859999999999918e+00 6.008289999999999687e+00 3.221100000000000074e-01 8.281810000000000116e+00 6.900529999999999831e+00 5.764540000000000219e+00 3.147069999999999812e+00 6.084480000000000111e+00 5.704229999999999912e+00 8.280580000000000496e+00 2.285540000000000127e+00 2.604010000000000158e+00 3.119199999999999751e-01 1.204390000000000072e+00 2.598910000000000053e+00 5.787939999999999863e+00 2.276889999999999858e+00 7.843370000000000175e+00 4.793899999999999828e-01 1.453440000000000065e+00 7.803530000000000300e+00 5.812369999999999592e+00 7.482529999999999681e+00 2.548439999999999817e+00 4.015400000000000080e-01 6.641189999999999927e+00 2.615340000000000220e+00 5.615380000000000038e+00 7.323089999999999655e+00 7.791140000000000398e+00 4.378099999999999770e-01 6.265170000000000350e+00 7.783229999999999649e+00 5.737809999999999633e+00 3.403259999999999952e+00 5.230360000000000120e+00 1.047195999999999927e+01 4.128829999999999778e+00 5.035650000000000404e+00 5.326520000000000366e+00 5.166240000000000165e+00 8.189000000000000445e-02 1.315000000000000023e-02 4.282750000000000057e+00 1.483899999999999941e-01 5.239139999999999908e+00 4.340000000000000108e-03 5.240120000000000111e+00 1.459000000000000054e-02 9.302740000000000009e+00 5.308080000000000354e+00 5.349050000000000082e+00 1.078699999999999937e-01 6.672999999999999765e-02 2.980000000000000010e-03 -8.480400000000000160e-01 1.008306999999999931e+01 5.150489999999999569e+00 3.524610000000000021e+00 4.560909999999999798e+00 3.424469999999999903e+00 2.615559999999999885e+00 4.457760000000000389e+00 8.552910000000000679e+00 3.507870000000000044e+00 9.993330000000000268e+00 3.200279999999999792e+00 2.576509999999999856e+00 9.632699999999999818e+00 8.634980000000000544e+00 8.625659999999999883e+00 4.727850000000000108e+00 3.380749999999999922e+00 7.796100000000000030e+00 4.577539999999999942e+00 8.551180000000000447e+00 8.367029999999999745e+00 9.278779999999999362e+00 3.380240000000000133e+00 7.640920000000000378e+00 9.573199999999999932e+00 8.700860000000000483e+00 3.037409999999999943e+00 1.983899999999999997e+00 2.298569999999999780e+00 1.929289999999999949e+00 1.921180000000000110e+00 7.657350000000000101e+00 3.094500000000000028e+00 7.098580000000000112e+00 2.432780000000000165e+00 2.075050000000000061e+00 7.118269999999999875e+00 7.573620000000000019e+00 8.164110000000000866e+00 2.011629999999999807e+00 2.343980000000000175e+00 7.307360000000000078e+00 1.892830000000000013e+00 7.520669999999999966e+00 2.444370000000000154e+00 1.165470000000000006e+00 5.018650000000000055e+00 1.641240000000000032e+00 1.137029999999999985e+00 1.015446000000000026e+01 2.471519999999999939e+00 6.336409999999999876e+00 5.016040000000000276e+00 1.616670000000000051e+00 6.285969999999999835e+00 1.022575999999999929e+01 7.740260000000000140e+00 1.160220000000000029e+00 4.838589999999999947e+00 6.971189999999999998e+00 1.242629999999999901e+00 1.010605999999999938e+01 7.546590000000000131e+00 6.319480000000000430e+00 5.094909999999999606e+00 6.868470000000000297e+00 6.417159999999999975e+00 1.006245999999999974e+01 3.915239999999999831e+00 3.837209999999999788e+00 6.612200000000000299e-01 3.051159999999999872e+00 3.595110000000000028e+00 6.009299999999999642e+00 3.965749999999999886e+00 8.892689999999999984e+00 6.502400000000000402e-01 3.080820000000000114e+00 8.877140000000000697e+00 5.841239999999999988e+00 9.254300000000000637e+00 3.741130000000000067e+00 7.504899999999999904e-01 8.140060000000000073e+00 3.857180000000000053e+00 5.883479999999999599e+00 8.962509999999999977e+00 9.139110000000000511e+00 8.776000000000000467e-01 7.937429999999999986e+00 8.983190000000000452e+00 6.104610000000000092e+00 1.926299999999999957e-01 1.525360000000000049e+00 4.129419999999999646e+00 -7.802200000000000246e-01 1.532950000000000035e+00 9.243579999999999686e+00 2.165700000000000125e-01 6.792159999999999975e+00 3.984389999999999876e+00 -7.402199999999999891e-01 6.725380000000000358e+00 9.228199999999999292e+00 5.349649999999999572e+00 1.715100000000000069e+00 3.930790000000000006e+00 4.428189999999999849e+00 1.379320000000000102e+00 9.164199999999999235e+00 5.240969999999999906e+00 6.882690000000000197e+00 3.999969999999999803e+00 4.341700000000000337e+00 6.700630000000000308e+00 9.365890000000000271e+00 1.180220000000000047e+00 4.135360000000000369e+00 1.601699999999999902e+00 1.539999999999999980e-01 4.140900000000000247e+00 6.962150000000000283e+00 1.083320000000000061e+00 9.315020000000000522e+00 1.582019999999999982e+00 2.093700000000000006e-01 9.295709999999999695e+00 6.914950000000000152e+00 6.192179999999999573e+00 4.257119999999999571e+00 1.717910000000000048e+00 5.366609999999999658e+00 4.152110000000000412e+00 6.957110000000000127e+00 6.219909999999999606e+00 9.481619999999999493e+00 1.655059999999999976e+00 5.243369999999999642e+00 9.391339999999999577e+00 6.925110000000000099e+00 6.259299999999999864e-01 4.025949999999999918e+00 4.366290000000000227e+00 -2.215199999999999947e-01 4.219439999999999635e+00 9.504580000000000695e+00 7.169200000000000017e-01 9.317360000000000753e+00 4.093560000000000088e+00 -1.572300000000000086e-01 9.159119999999999706e+00 9.543720000000000425e+00 5.698419999999999597e+00 4.139109999999999623e+00 4.352240000000000109e+00 4.970659999999999634e+00 4.093950000000000422e+00 9.491730000000000445e+00 5.742359999999999687e+00 9.435439999999999827e+00 4.360719999999999708e+00 4.958949999999999747e+00 9.292669999999999320e+00 9.450480000000000658e+00 7.171199999999999797e-01 1.577870000000000106e+00 1.291639999999999899e+00 -4.025299999999999989e-01 1.497749999999999915e+00 6.695140000000000313e+00 6.688399999999999901e-01 6.682360000000000078e+00 1.318519999999999914e+00 -2.660100000000000242e-01 6.723110000000000142e+00 6.744799999999999685e+00 5.886870000000000047e+00 1.516469999999999985e+00 1.217119999999999980e+00 4.955869999999999997e+00 1.483899999999999997e+00 6.601700000000000124e+00 5.843609999999999971e+00 6.744790000000000063e+00 1.374409999999999910e+00 4.823839999999999684e+00 6.612870000000000026e+00 6.689280000000000115e+00
4.756409999999999805e+00 2.989370000000000083e+00 2.464859999999999829e+00 3.758370000000000211e+00 3.005360000000000031e+00 7.921369999999999578e+00 4.676470000000000127e+00 8.235260000000000247e+00 2.624099999999999877e+00 3.870359999999999800e+00 8.281589999999999563e+00 7.885790000000000077e+00 9.806150000000000588e+00 2.995210000000000150e+00 2.670999999999999819e+00 8.814109999999999445e+00 2.999779999999999891e+00 7.838470000000000049e+00 -3.110200000000000187e-01 8.281159999999999854e+00 2.675139999999999851e+00 8.883490000000000109e+00 8.181100000000000705e+00 7.670169999999999710e+00 1.787809999999999899e+00 5.157199999999999562e-01 2.956859999999999822e+00 8.476000000000000201e-01 3.991000000000000103e-01 8.235939999999999372e+00 1.683140000000000081e+00 5.648380000000000400e+00 3.169599999999999973e+00 8.896800000000000264e-01 5.747600000000000264e+00 8.416309999999999292e+00 7.013150000000000439e+00 3.915600000000000191e-01 3.034819999999999851e+00 6.018989999999999618e+00 3.309400000000000119e-01 8.159610000000000696e+00 6.936079999999999579e+00 5.664460000000000051e+00 3.149490000000000123e+00 6.021519999999999762e+00 5.601609999999999978e+00 8.337740000000000151e+00 2.241769999999999818e+00 2.534899999999999931e+00 3.711800000000000099e-01 1.326459999999999972e+00 2.664569999999999883e+00 5.788579999999999615e+00 2.238150000000000084e+00 7.975740000000000052e+00 4.935499999999999887e-01 1.419550000000000090e+00 7.774989999999999846e+00 5.692289999999999850e+00 7.427200000000000024e+00 2.558850000000000069e+00 4.801599999999999757e-01 6.394040000000000390e+00 2.540309999999999846e+00 5.609860000000000291e+00 7.341300000000000381e+00 7.770430000000000170e+00 4.764100000000000001e-01 6.409419999999999895e+00 7.846630000000000216e+00 5.670980000000000132e+00 3.328149999999999942e+00 5.097809999999999953e+00 1.045415000000000028e+01 4.236620000000000275e+00 5.173729999999999940e+00 5.283009999999999984e+00 5.205720000000000347e+00 5.770000000000000129e-02 9.317000000000000282e-02 4.124749999999999694e+00 1.037445999999999913e+01 5.222590000000000288e+00 -1.749530000000000030e+00 5.337959999999999816e+00 1.037697000000000003e+01 9.267879999999999896e+00 5.123829999999999885e+00 5.258119999999999905e+00 1.013264999999999993e+01 1.029185999999999979e+01 1.456999999999999962e-02 9.346109999999999474e+00 1.231199999999999933e-01 5.273570000000000313e+00 3.532939999999999969e+00 4.546429999999999971e+00 3.439140000000000086e+00 2.513450000000000184e+00 4.556000000000000050e+00 8.650199999999999889e+00 3.429959999999999898e+00 9.740840000000000387e+00 3.418210000000000193e+00 2.483150000000000190e+00 9.791710000000000136e+00 8.662990000000000634e+00 8.685060000000000002e+00 4.529959999999999987e+00 3.323770000000000113e+00 7.778120000000000367e+00 4.514190000000000147e+00 8.631429999999999936e+00 8.697580000000000311e+00 9.696360000000000312e+00 3.423430000000000195e+00 7.580930000000000391e+00 9.540589999999999904e+00 8.594390000000000640e+00 3.023169999999999913e+00 1.883089999999999931e+00 2.329200000000000159e+00 2.040430000000000188e+00 1.942569999999999908e+00 7.671000000000000263e+00 2.941069999999999851e+00 7.104250000000000398e+00 2.407179999999999875e+00 1.997460000000000013e+00 7.378420000000000201e+00 7.706339999999999968e+00 8.074849999999999639e+00 1.997509999999999897e+00 2.246960000000000068e+00 7.296890000000000320e+00 1.800759999999999916e+00 7.484009999999999607e+00 8.111079999999999401e+00 7.079180000000000028e+00 2.352310000000000123e+00 7.103469999999999729e+00 7.066309999999999647e+00 7.423540000000000028e+00 2.328110000000000124e+00 1.023940000000000072e+00 5.037069999999999936e+00 1.581720000000000015e+00 9.966099999999999959e-01 1.031296999999999997e+01 2.503229999999999844e+00 6.264079999999999870e+00 5.096829999999999750e+00 1.574670000000000014e+00 6.295639999999999681e+00 1.034276999999999980e+01 7.656069999999999709e+00 9.993499999999999606e-01 4.924240000000000173e+00 6.603930000000000078e+00 9.362800000000000011e-01 1.010826999999999920e+01 7.654110000000000191e+00 6.266119999999999912e+00 5.053860000000000241e+00 6.802089999999999748e+00 6.327270000000000394e+00 1.020626999999999995e+01 4.027739999999999654e+00 3.514079999999999870e+00 6.598500000000000476e-01 2.890489999999999782e+00 3.865540000000000198e+00 6.085589999999999833e+00 3.943309999999999871e+00 8.977750000000000341e+00 8.294799999999999951e-01 3.020070000000000032e+00 8.943920000000000314e+00 6.054229999999999556e+00 9.063480000000000203e+00 3.789569999999999883e+00 7.603199999999999958e-01 8.068839999999999790e+00 3.705410000000000093e+00 5.973830000000000418e+00 8.996850000000000236e+00 8.931039999999999424e+00 7.874499999999999833e-01 8.144420000000000215e+00 8.842999999999999972e+00 5.794870000000000410e+00 1.009999999999999960e-02 1.428830000000000044e+00 3.944269999999999943e+00 -7.391299999999999537e-01 1.541760000000000019e+00 9.280120000000000147e+00 2.611299999999999732e-01 6.834990000000000343e+00 4.000119999999999898e+00 -7.383600000000000163e-01 6.810859999999999914e+00 9.263030000000000541e+00 5.407199999999999562e+00 1.629210000000000047e+00 3.967890000000000139e+00 4.274869999999999948e+00 1.701319999999999943e+00 9.284489999999999910e+00 5.333899999999999864e+00 6.876809999999999867e+00 4.184899999999999842e+00 4.475789999999999935e+00 6.725220000000000198e+00 9.448719999999999786e+00 1.089050000000000074e+00 4.170060000000000322e+00 1.726669999999999927e+00 1.041399999999999965e-01 4.225189999999999557e+00 6.979940000000000033e+00 1.070799999999999974e+00 9.369780000000000442e+00 1.599480000000000013e+00 1.434300000000000019e-01 9.343690000000000495e+00 6.884210000000000385e+00 6.287169999999999703e+00 4.150249999999999773e+00 1.722290000000000099e+00 5.209600000000000009e+00 4.200669999999999682e+00 6.963669999999999582e+00 7.493800000000000461e-01 4.037130000000000329e+00 4.321690000000000254e+00 -1.667399999999999993e-01 4.170889999999999986e+00 9.578760000000000829e+00 7.359900000000000331e-01 9.285780000000000811e+00 4.223629999999999995e+00 -2.616100000000000092e-01 9.367699999999999250e+00 9.620779999999999887e+00 5.869860000000000078e+00 4.124710000000000321e+00 4.344170000000000087e+00 4.956640000000000157e+00 4.064739999999999576e+00 9.498110000000000497e+00 5.889260000000000161e+00 9.286089999999999733e+00 4.284600000000000186e+00 4.983719999999999928e+00 9.196479999999999322e+00 9.442569999999999908e+00 6.257700000000000484e-01 1.498769999999999936e+00 1.365529999999999911e+00 -2.077700000000000102e-01 1.519470000000000098e+00 6.683019999999999960e+00 7.049800000000000511e-01 6.809580000000000410e+00 1.326910000000000034e+00 -2.001699999999999868e-01 6.784819999999999851e+00 6.492390000000000327e+00 5.835910000000000153e+00 1.394039999999999946e+00 1.415149999999999908e+00 4.925720000000000098e+00 1.453330000000000011e+00 6.637550000000000061e+00 5.680959999999999788e+00 6.705449999999999910e+00 1.510389999999999899e+00 4.793339999999999712e+00 6.664670000000000094e+00 6.700459999999999638e+00
4.535829999999999806e+00 3.039289999999999825e+00 2.630799999999999805e+00 3.747679999999999900e+00 2.995070000000000121e+00 7.864440000000000097e+00 4.644750000000000156e+00 8.074790000000000134e+00 2.695580000000000087e+00 3.917209999999999859e+00 8.211220000000000852e+00 7.879030000000000200e+00 9.703720000000000567e+00 2.966969999999999885e+00 2.568280000000000118e+00 8.857799999999999230e+00 3.013980000000000103e+00 7.757629999999999804e+00 -4.259899999999999798e-01 8.064759999999999707e+00 2.551810000000000134e+00 -1.252909999999999968e+00 8.184570000000000789e+00 7.782639999999999780e+00 1.789539999999999909e+00 3.903400000000000203e-01 2.973009999999999931e+00 8.984199999999999964e-01 4.663499999999999868e-01 8.224919999999999121e+00 1.775330000000000075e+00 5.584780000000000300e+00 3.089999999999999858e+00 9.164200000000000124e-01 5.685130000000000017e+00 8.232060000000000599e+00 6.921020000000000394e+00 3.624100000000000099e-01 3.036290000000000155e+00 5.982789999999999608e+00 4.715900000000000092e-01 8.192339999999999733e+00 6.815260000000000318e+00 5.554090000000000416e+00 3.158700000000000063e+00 6.095209999999999795e+00 5.524589999999999890e+00 8.378550000000000608e+00 2.135940000000000172e+00 2.632280000000000175e+00 4.230200000000000071e-01 1.313199999999999923e+00 2.548140000000000072e+00 5.648139999999999716e+00 2.190599999999999881e+00 7.874880000000000102e+00 4.567599999999999993e-01 1.389059999999999961e+00 7.766539999999999999e+00 5.643320000000000114e+00 7.319759999999999600e+00 2.585319999999999840e+00 5.008099999999999774e-01 6.375680000000000014e+00 2.556299999999999795e+00 5.528800000000000381e+00 7.209039999999999893e+00 7.674039999999999750e+00 4.603900000000000214e-01 6.480000000000000426e+00 7.818690000000000140e+00 5.708879999999999733e+00 3.262640000000000207e+00 5.311609999999999943e+00 1.041305000000000014e+01 4.196060000000000123e+00 5.217389999999999972e+00 5.288450000000000095e+00 3.254319999999999879e+00 1.246400000000000008e-01 1.038025999999999982e+01 4.151539999999999786e+00 2.194000000000000117e-02 5.279390000000000249e+00 8.086999999999999744e-02 5.087959999999999816e+00 1.339000000000000086e-02 -8.826500000000000457e-01 5.220600000000000129e+00 5.255749999999999922e+00 8.304539999999999367e+00 8.754000000000000670e-02 1.039906000000000041e+01 -8.309600000000000319e-01 1.383999999999999987e-02 5.109890000000000043e+00 3.618640000000000079e+00 4.590480000000000338e+00 3.398229999999999862e+00 2.664620000000000211e+00 4.663820000000000299e+00 8.408889999999999532e+00 3.434779999999999944e+00 9.582660000000000622e+00 3.389489999999999892e+00 2.586120000000000196e+00 9.703160000000000451e+00 8.542149999999999466e+00 8.545609999999999928e+00 4.422970000000000290e+00 3.248559999999999892e+00 7.685990000000000322e+00 4.486860000000000070e+00 8.467639999999999390e+00 8.661970000000000169e+00 9.774409999999999599e+00 3.302770000000000206e+00 7.748099999999999987e+00 9.713729999999999976e+00 8.581099999999999284e+00 2.822039999999999882e+00 2.004199999999999982e+00 2.381180000000000074e+00 1.974129999999999940e+00 1.920439999999999925e+00 7.491159999999999819e+00 2.937520000000000131e+00 7.048779999999999824e+00 2.197239999999999860e+00 2.114110000000000156e+00 7.127410000000000245e+00 7.645609999999999573e+00 8.094920000000000115e+00 1.795479999999999965e+00 2.276040000000000063e+00 7.119100000000000428e+00 1.971559999999999979e+00 7.563509999999999955e+00 8.003780000000000783e+00 7.084039999999999893e+00 2.285210000000000186e+00 7.276220000000000354e+00 7.019759999999999778e+00 7.490070000000000228e+00 2.439859999999999918e+00 1.107169999999999987e+00 4.927710000000000257e+00 1.435950000000000060e+00 1.040470000000000006e+00 1.015226000000000006e+01 2.473819999999999908e+00 6.263589999999999769e+00 4.861089999999999911e+00 1.582379999999999898e+00 6.201990000000000336e+00 1.015816000000000052e+01 7.662010000000000431e+00 1.135729999999999906e+00 4.998789999999999623e+00 6.690400000000000347e+00 1.219100000000000072e+00 1.007596000000000025e+01 7.623170000000000002e+00 6.180390000000000050e+00 4.885299999999999976e+00 6.786739999999999995e+00 6.333380000000000010e+00 1.015366000000000035e+01 3.881040000000000045e+00 3.687570000000000014e+00 6.778600000000000181e-01 3.019270000000000120e+00 3.659120000000000150e+00 5.839430000000000121e+00 3.880830000000000002e+00 9.015719999999999956e+00 7.418099999999999694e-01 3.076490000000000169e+00 8.864140000000000796e+00 5.917430000000000412e+00 9.035009999999999764e+00 3.651199999999999779e+00 6.153600000000000181e-01 8.125009999999999621e+00 3.664219999999999811e+00 5.960259999999999891e+00 9.030929999999999680e+00 9.027060000000000528e+00 9.110399999999999610e-01 8.352439999999999642e+00 8.775579999999999714e+00 5.898859999999999992e+00 4.238999999999999713e-02 1.612640000000000073e+00 3.936890000000000001e+00 -8.162000000000000366e-01 1.746439999999999992e+00 9.299950000000000827e+00 1.553700000000000081e-01 6.753120000000000012e+00 3.986920000000000019e+00 -6.342600000000000460e-01 6.769379999999999953e+00 9.304859999999999687e+00 5.318640000000000256e+00 1.447449999999999903e+00 4.035730000000000040e+00 4.326690000000000147e+00 1.586510000000000087e+00 9.309229999999999450e+00 5.347089999999999677e+00 6.694440000000000168e+00 4.160700000000000287e+00 4.412799999999999834e+00 6.758119999999999905e+00 9.387600000000000833e+00 1.180700000000000083e+00 4.154069999999999929e+00 1.567569999999999908e+00 2.238400000000000112e-01 4.174280000000000435e+00 6.870400000000000063e+00 1.228129999999999944e+00 9.177030000000000243e+00 1.657880000000000020e+00 2.453500000000000125e-01 9.249230000000000729e+00 6.864650000000000141e+00 6.226280000000000037e+00 3.975179999999999936e+00 1.779600000000000071e+00 5.297240000000000393e+00 4.124509999999999899e+00 7.008980000000000210e+00 7.001300000000000301e-01 4.126909999999999634e+00 4.230279999999999596e+00 -5.818999999999999867e-02 4.203640000000000043e+00 9.467620000000000147e+00 7.018400000000000194e-01 9.223190000000000666e+00 4.256929999999999659e+00 -1.775200000000000111e-01 9.188599999999999213e+00 9.442009999999999792e+00 5.663470000000000226e+00 3.996900000000000119e+00 4.257670000000000066e+00 4.759269999999999889e+00 4.118829999999999991e+00 9.564329999999999998e+00 5.710549999999999571e+00 9.259270000000000778e+00 4.390290000000000248e+00 5.024070000000000036e+00 9.205880000000000507e+00 9.558609999999999829e+00 5.528999999999999471e-01 1.558280000000000109e+00 1.412199999999999900e+00 -3.478600000000000025e-01 1.400400000000000089e+00 6.694759999999999600e+00 5.503400000000000514e-01 6.566130000000000244e+00 1.439910000000000023e+00 -1.784600000000000075e-01 6.689009999999999678e+00 6.551449999999999996e+00 5.734750000000000014e+00 1.254180000000000073e+00 1.550359999999999960e+00 4.648279999999999745e+00 1.554699999999999971e+00 6.719120000000000203e+00 5.632600000000000051e+00 6.703050000000000175e+00 1.428940000000000099e+00 5.029449999999999754e+00 6.822530000000000427e+00 6.611030000000000406e+00
4.600389999999999979e+00 3.136400000000000077e+00 2.577869999999999884e+00 3.799690000000000012e+00 3.049939999999999873e+00 7.937199999999999811e+00 4.746629999999999683e+00 8.132070000000000576e+00 2.593529999999999891e+00 3.810470000000000024e+00 8.412110000000000198e+00 7.938760000000000261e+00 -3.770899999999999808e-01 2.996579999999999799e+00 2.555169999999999941e+00 -1.309739999999999904e+00 3.092029999999999834e+00 7.846910000000000274e+00 9.848520000000000607e+00 8.253780000000000783e+00 2.575740000000000141e+00 -1.255209999999999937e+00 8.298009999999999664e+00 7.923809999999999576e+00 1.868139999999999912e+00 3.180000000000000049e-01 3.142959999999999976e+00 7.517099999999999893e-01 4.689499999999999780e-01 8.456780000000000186e+00 1.719729999999999981e+00 5.663160000000000416e+00 3.081199999999999939e+00 8.985800000000000454e-01 5.680340000000000167e+00 8.393280000000000740e+00 6.815839999999999677e+00 3.780899999999999817e-01 3.086800000000000210e+00 6.116830000000000211e+00 4.820800000000000085e-01 8.479309999999999903e+00 6.854020000000000223e+00 5.587270000000000181e+00 3.129399999999999959e+00 5.974009999999999820e+00 5.878000000000000114e+00 8.306839999999999336e+00 2.121109999999999829e+00 2.617690000000000072e+00 3.889599999999999724e-01 1.355769999999999920e+00 2.573529999999999873e+00 5.724969999999999892e+00 2.190360000000000085e+00 7.728559999999999874e+00 4.582899999999999752e-01 1.358800000000000008e+00 8.013700000000000045e+00 5.780450000000000088e+00 7.435609999999999609e+00 2.613189999999999902e+00 5.266999999999999460e-01 6.590300000000000047e+00 2.566879999999999828e+00 5.700929999999999609e+00 7.273530000000000051e+00 7.799549999999999983e+00 5.421899999999999498e-01 6.591879999999999740e+00 7.873300000000000409e+00 5.609149999999999636e+00 3.371140000000000025e+00 5.284600000000000186e+00 1.050595999999999997e+01 4.311869999999999870e+00 5.291389999999999816e+00 5.334819999999999673e+00 3.381050000000000111e+00 1.043892999999999915e+01 1.052246000000000059e+01 4.336190000000000211e+00 2.411999999999999908e-02 5.268069999999999808e+00 8.465239999999999654e+00 5.197840000000000238e+00 1.042966000000000015e+01 -8.402699999999999614e-01 5.305950000000000166e+00 5.226140000000000008e+00 1.024581000000000053e+01 1.035063000000000066e+01 4.197000000000000036e-02 9.386699999999999378e+00 1.225399999999999961e-01 5.224669999999999703e+00 3.372799999999999798e+00 4.523130000000000095e+00 3.479109999999999925e+00 2.660559999999999814e+00 4.616369999999999862e+00 8.673669999999999547e+00 3.667790000000000106e+00 9.590130000000000265e+00 3.528560000000000141e+00 2.350330000000000030e+00 9.643639999999999546e+00 8.769489999999999341e+00 8.608589999999999520e+00 4.613400000000000389e+00 3.278239999999999821e+00 7.843899999999999650e+00 4.542119999999999713e+00 8.600039999999999907e+00 8.656629999999999825e+00 9.815329999999999444e+00 3.309540000000000148e+00 7.889319999999999666e+00 9.777770000000000294e+00 8.725960000000000605e+00 3.017999999999999794e+00 1.807020000000000071e+00 2.367809999999999970e+00 2.062289999999999957e+00 1.855299999999999949e+00 7.754950000000000010e+00 3.116870000000000029e+00 6.924129999999999896e+00 2.072779999999999845e+00 2.175959999999999894e+00 7.168750000000000178e+00 7.561890000000000001e+00 8.162890000000000867e+00 1.916770000000000085e+00 2.294939999999999980e+00 7.320059999999999789e+00 1.812380000000000102e+00 7.516359999999999708e+00 8.100410000000000110e+00 7.269890000000000185e+00 2.527299999999999880e+00 7.285569999999999879e+00 7.214190000000000325e+00 7.623800000000000132e+00 2.644660000000000011e+00 1.073530000000000095e+00 5.110280000000000378e+00 1.538599999999999968e+00 1.110649999999999915e+00 1.031635999999999953e+01 2.470400000000000151e+00 6.457259999999999778e+00 4.936060000000000336e+00 1.658609999999999918e+00 6.266960000000000086e+00 1.021936000000000000e+01 7.721650000000000347e+00 1.053490000000000038e+00 4.981010000000000382e+00 6.817230000000000345e+00 1.159650000000000070e+00 1.029686000000000057e+01 7.720069999999999766e+00 6.275179999999999758e+00 5.127580000000000027e+00 6.739220000000000432e+00 6.288350000000000328e+00 1.031255999999999950e+01 3.895960000000000090e+00 3.731440000000000090e+00 7.488000000000000211e-01 3.083110000000000017e+00 3.691800000000000193e+00 6.093790000000000262e+00 3.880910000000000082e+00 8.802670000000000883e+00 7.091899999999999871e-01 3.122149999999999981e+00 9.107260000000000133e+00 6.198570000000000135e+00 9.228070000000000661e+00 3.579930000000000057e+00 7.469000000000000083e-01 8.256050000000000111e+00 3.645999999999999908e+00 5.981049999999999756e+00 8.975979999999999848e+00 8.911110000000000753e+00 6.746199999999999974e-01 8.130169999999999675e+00 9.006650000000000489e+00 6.075249999999999595e+00 3.234199999999999853e-01 1.417869999999999964e+00 4.018180000000000085e+00 -8.018699999999999717e-01 1.660309999999999953e+00 9.370229999999999393e+00 2.393099999999999949e-01 6.831179999999999808e+00 3.952090000000000103e+00 -5.859299999999999509e-01 6.805550000000000210e+00 9.315490000000000492e+00 5.455049999999999955e+00 1.663999999999999924e+00 3.954009999999999803e+00 4.450560000000000294e+00 1.378239999999999910e+00 9.341850000000000875e+00 5.447300000000000253e+00 6.673820000000000086e+00 4.157949999999999591e+00 4.321970000000000312e+00 6.837390000000000079e+00 9.265190000000000481e+00 1.167259999999999964e+00 4.176379999999999981e+00 1.578629999999999978e+00 2.264500000000000124e-01 4.141939999999999955e+00 6.748940000000000161e+00 1.108600000000000030e+00 9.364549999999999486e+00 1.669820000000000082e+00 2.675400000000000000e-01 9.492570000000000618e+00 6.976919999999999789e+00 6.274820000000000064e+00 4.131590000000000096e+00 1.661289999999999933e+00 5.404519999999999769e+00 4.304319999999999702e+00 7.024580000000000268e+00 5.473299999999999832e-01 3.968659999999999854e+00 4.272280000000000300e+00 -5.362999999999999712e-02 4.089509999999999756e+00 9.432620000000000005e+00 6.257800000000000029e-01 9.289210000000000633e+00 4.247440000000000104e+00 -3.122300000000000075e-01 9.207789999999999253e+00 9.660439999999999472e+00 5.878849999999999909e+00 4.222389999999999866e+00 4.262889999999999624e+00 4.906789999999999985e+00 4.107179999999999609e+00 9.654540000000000788e+00 6.020889999999999631e+00 9.289490000000000691e+00 4.225600000000000023e+00 4.919469999999999565e+00 9.362709999999999866e+00 9.563159999999999883e+00 6.949800000000000422e-01 1.555770000000000097e+00 1.545889999999999986e+00 -2.679300000000000015e-01 1.485549999999999926e+00 6.658890000000000420e+00 5.625499999999999945e-01 6.657610000000000028e+00 1.403950000000000031e+00 -1.558199999999999863e-01 6.752589999999999648e+00 6.747379999999999711e+00 5.760970000000000368e+00 1.409650000000000070e+00 1.516969999999999930e+00 4.978600000000000136e+00 1.284929999999999906e+00 6.744480000000000253e+00 5.836599999999999788e+00 6.578219999999999956e+00 1.514229999999999965e+00 4.960420000000000051e+00 6.764639999999999986e+00 6.617239999999999789e+00