1.550199999999999911e-01 1.276415000000000077e+00 1.362543999999999977e+00 4.112439999999999984e-01 7.739700000000000468e-01 1.014658999999999978e+00 1.940029999999999921e+00 5.655470000000000219e-01 -1.144125999999999976e+00 -1.150398000000000032e+00 -5.552179999999999893e-01 1.417173999999999934e+00 1.739200000000000121e-02 -4.217830000000000190e-01 -1.640880000000000116e-01 1.147064000000000084e+00 -1.526810000000000112e-01 9.764800000000000146e-01 6.833240000000000425e-01 3.863260000000000027e-01 1.317899999999999974e-02 -6.417969999999999509e-01 5.060379999999999878e-01 1.527003000000000110e+00 -6.893939999999999513e-01 2.953499999999999875e-02 4.671879999999999922e-01 -2.226539999999999908e-01 -1.120538000000000034e+00 -2.183615000000000084e+00 -1.109386999999999901e+00 3.008129999999999971e-01 -8.778979999999999562e-01 -1.080481999999999942e+00 5.901030000000000442e-01 -9.946949999999999958e-01 1.726361999999999952e+00 -1.962969999999999993e-01 9.207200000000000106e-02 2.036887999999999810e+00 1.133361000000000063e+00 3.299650000000000083e-01 -8.525319999999999565e-01 -3.399220000000000019e-01 -1.110654000000000030e+00 -2.321660000000000112e-01 -9.501270000000000548e-01 6.399199999999999333e-02 -1.383777000000000035e+00 2.052016000000000062e+00 1.420400000000000107e+00 -7.435899999999999732e-01 -1.196112999999999982e+00 -5.467189999999999550e-01 -7.062239999999999629e-01 -1.057938000000000045e+00 -8.004010000000000291e-01 -1.945982000000000101e+00 9.370499999999999663e-02 -1.492974999999999941e+00 1.203908999999999896e+00 1.331766000000000005e+00 -3.514889999999999959e-01 -1.893842999999999943e+00 -1.692299999999999915e-01 2.558420000000000138e-01 7.760810000000000208e-01 5.598670000000000035e-01 -2.473110000000000031e-01 1.265900000000000025e+00 6.743280000000000385e-01 -6.072410000000000307e-01 7.974369999999999514e-01 2.604600000000000248e-01 2.658499999999999752e-01 1.604508000000000045e+00 1.762464000000000031e+00 4.654599999999999710e-02 -2.090889999999999971e-01 -2.577729999999999855e+00 -1.234210000000000029e+00 -2.017818999999999807e+00 -1.344009999999999927e-01 -3.322169999999999845e-01 1.055326999999999904e+00 4.721409999999999774e-01 -9.304210000000000536e-01 1.893410999999999955e+00 7.951249999999999707e-01 -9.761509999999999909e-01 -1.666743000000000086e+00 -2.177888999999999964e+00 -1.299359999999999959e-01 -1.791071999999999997e+00 2.838607999999999798e+00 3.287550000000000194e-01 -8.628109999999999946e-01 -4.695699999999999874e-01 -7.256500000000000172e-01 1.349920000000000009e-01 1.537439999999999918e-01 3.555800000000000072e-01 4.938299999999999912e-01 -9.372840000000000060e-01 7.245380000000000154e-01 -3.769150000000000000e-01 7.481910000000000505e-01 -4.022169999999999912e-01 3.131829999999999892e-01 -6.323189999999999644e-01 -3.785720000000000196e-01 -1.351739000000000024e+00 6.748349999999999627e-01 -1.464449999999999918e-01 2.176289999999999891e-01 1.809660999999999964e+00 1.791079000000000088e+00 6.625900000000000123e-01 1.143389999999999962e-01 -9.879999999999999460e-04 -7.090319999999999956e-01 3.360500000000000292e-02 -9.451659999999999506e-01 1.288010000000000099e+00 4.372199999999999975e-01 -1.075020000000000003e-01 -1.842610000000000081e+00 -1.134290000000000020e-01 -7.541860000000000230e-01 8.165599999999999525e-01 1.067889999999999950e-01 5.351000000000000201e-01 -6.436600000000000099e-01 -5.793890000000000429e-01 -3.705609999999999737e-01 -1.676257000000000108e+00 -4.264729999999999910e-01 -6.906280000000000197e-01 1.157181000000000015e+00 -7.791559999999999597e-01 -5.422400000000000553e-01 5.314729999999999732e-01 -3.014020000000000032e-01 7.178379999999999761e-01 9.574310000000000320e-01 -1.808424000000000031e+00 -4.996579999999999910e-01 2.929809999999999914e-01 2.658300000000000107e-01 1.462539999999999951e-01 3.461049999999999960e-01 -9.532690000000000330e-01 -2.061350000000000127e-01 -1.649429000000000034e+00 2.987009999999999943e-01 7.901600000000000290e-02 -1.771520000000000039e-01 5.945650000000000102e-01 -5.897310000000000052e-01 -1.160962000000000049e+00 7.933440000000000492e-01 4.930910000000000015e-01 -8.285740000000000327e-01 -1.794221999999999984e+00 5.826580000000000092e-01 -1.095820999999999934e+00 -5.946799999999999864e-01 1.685429999999999984e-01 1.322049999999999892e-01 8.488099999999999812e-02 1.057897000000000087e+00 9.755930000000000435e-01 8.511180000000000412e-01 4.699260000000000104e-01 -2.680362000000000133e+00 -1.172906000000000004e+00 2.212530000000000052e-01 -2.340470000000000050e-01 -1.361294999999999922e+00 1.052799999999999958e+00 -5.465229999999999810e-01 -1.020137999999999989e+00 -7.937670000000000003e-01 9.625749999999999584e-01 -5.440749999999999753e-01 -2.836190000000000100e-01 -4.873730000000000007e-01 2.069670000000000121e-01 -1.388560000000000016e+00 1.402201000000000031e+00 5.459500000000000464e-01 2.137650000000000106e-01 -2.905269999999999797e-01 -5.651669999999999749e-01 6.671120000000000383e-01 3.461640000000000272e-01 3.647070000000000034e-01 1.712690000000000046e-01 3.486650000000000027e-01 -1.293187000000000086e+00 2.484510000000000052e-01 3.018170000000000019e-01 1.390269999999999895e+00 1.221330000000000054e-01 8.915429999999999744e-01 -2.079739999999999922e-01 7.725149999999999517e-01 1.238104000000000093e+00 1.315682999999999936e+00 -1.667527999999999899e+00 4.922320000000000029e-01 7.489839999999999831e-01 1.659216999999999942e+00 5.464090000000000336e-01 6.258150000000000102e-01 -6.633069999999999800e-01 6.896930000000000005e-01 8.138950000000000351e-01 3.780040000000000067e-01 -3.193230000000000235e-01 4.165989999999999971e-01 -9.387539999999999774e-01 8.574610000000000287e-01 3.833199999999999802e-02 -4.511029999999999762e-01 -1.169049999999999950e-01 -3.103290000000000215e-01 -2.680339999999999945e-01 -4.322409999999999863e-01 -8.448480000000000434e-01 -1.653509999999999980e-01 3.883210000000000273e-01 -4.353400000000000047e-01 -9.488029999999999520e-01 1.063729999999999953e-01 1.165659999999999918e+00 -6.235330000000000039e-01 4.896539999999999782e-01 -2.174513000000000140e+00 6.740110000000000268e-01 -3.384289999999999798e-01 -4.882469999999999866e-01 1.197316999999999965e+00 -4.975580000000000003e-01 1.741044000000000036e+00 -6.229130000000000500e-01 1.299099000000000004e+00 -2.348709999999999964e-01 -2.517690000000000206e-01 -7.195200000000000207e-02 -1.167920000000000069e+00 9.214189999999999880e-01 3.710700000000000109e-02 -3.331680000000000197e-01 -6.303360000000000074e-01 -3.493740000000000179e-01 -4.824530000000000207e-01 1.070578000000000030e+00 1.107930000000000026e-01 -5.910100000000000353e-01 1.471368999999999927e+00 1.013371999999999939e+00 -8.629259999999999708e-01 -5.742899999999999672e-01 3.743719999999999826e-01 2.953660000000000174e-01 1.292591999999999963e+00 -3.474000000000000091e-03 -6.222239999999999993e-01 -1.147432000000000007e+00 -3.212760000000000060e-01 1.280582000000000109e+00 1.736580000000000013e+00 1.826520000000000088e-01 4.742009999999999836e-01 1.137979999999999964e-01 1.134000000000000008e-01 -1.782399999999999957e-02 1.071571999999999969e+00 1.756060000000000121e-01 3.764339999999999908e-01 1.440019999999999911e-01
-1.045223000000000013e+00 1.086225999999999914e+00 3.123924999999999841e+00 -5.917310000000000070e-01 1.687281000000000031e+00 -5.821800000000000308e-01 -1.297280000000000100e-01 -6.450289999999999635e-01 7.897669999999999968e-01 -1.642390000000000017e+00 -8.023730000000000029e-01 5.982960000000000500e-01 1.341393999999999975e+00 1.412517000000000023e+00 -1.712614000000000081e+00 2.267878000000000061e+00 5.114410000000000345e-01 1.033290000000000042e+00 -1.665923999999999960e+00 -8.690269999999999939e-01 -2.411619999999999875e-01 -1.725849999999999884e-01 -2.730310000000000237e-01 9.085020000000000318e-01 -1.360117999999999938e+00 -1.164220000000000033e+00 1.819941999999999949e+00 -3.556730000000000169e-01 2.331729999999999914e-01 2.249378000000000100e+00 2.017164999999999875e+00 -9.608109999999999706e-01 -1.913283999999999985e+00 -1.575700000000000017e-02 -2.858450000000000157e-01 -6.227369999999999850e-01 -6.725170000000000314e-01 -5.924779999999999491e-01 4.450609999999999844e-01 -2.083349999999999924e-01 6.908459999999999601e-01 1.511895999999999907e+00 -6.531869999999999621e-01 2.538309999999999733e-01 -5.590870000000000006e-01 -8.156029999999999669e-01 4.943930000000000269e-01 1.776959999999999928e-01 -1.319595999999999991e+00 3.287120000000000042e-01 5.523800000000000238e-02 1.786310000000000120e-01 1.219800000000000051e-02 -2.026930000000000121e-01 2.435309999999999975e-01 -2.465864999999999974e+00 -4.663709999999999800e-01 -1.359361999999999959e+00 9.254780000000000229e-01 -2.948950000000000182e-01 5.564109999999999889e-01 1.520065000000000000e+00 -2.263726999999999823e+00 5.365830000000000322e-01 5.996120000000000339e-01 -1.240999999999999916e-03 -2.354499999999999996e-02 -1.014950999999999937e+00 7.994310000000000027e-01 -4.888290000000000135e-01 -8.871130000000000404e-01 -3.729950000000000210e-01 -9.220000000000000764e-03 2.259116999999999820e+00 8.844130000000000047e-01 -1.314919999999999978e-01 3.088960000000000039e-01 -2.124739999999999962e-01 -1.609984000000000082e+00 -1.200798000000000032e+00 -2.634609000000000201e+00 1.949210000000000109e-01 3.496670000000000056e-01 -1.442779999999999896e-01 6.091579999999999773e-01 -1.371145000000000058e+00 3.076877000000000084e+00 1.544033999999999907e+00 9.529919999999999503e-01 4.702839999999999798e-01 1.577439000000000036e+00 1.341310000000000002e+00 -1.054043000000000063e+00 1.990548999999999902e+00 -2.387477000000000071e+00 -5.282400000000000428e-01 2.737699999999999856e-02 -6.427810000000000468e-01 -9.464160000000000350e-01 8.597029999999999950e-01 -3.219299999999999939e-01 -4.473900000000000099e-02 5.036659999999999471e-01 -3.493370000000000086e-01 -5.631310000000000482e-01 2.428218999999999905e+00 -1.244116999999999917e+00 -3.034209999999999963e-01 -5.870379999999999487e-01 4.168229999999999991e-01 1.050939999999999985e+00 -1.184717999999999938e+00 3.348979999999999735e-01 -7.871369999999999756e-01 -9.131979999999999542e-01 2.889329999999999954e-01 -1.298192000000000013e+00 1.024788999999999950e+00 -4.695200000000000068e-02 -6.798180000000000334e-01 1.461369999999999891e-01 7.919159999999999533e-01 -2.788390000000000035e-01 1.376130000000000131e-01 4.908449999999999758e-01 -5.088589999999999502e-01 3.366509999999999780e-01 9.199899999999999745e-01 2.402640000000000053e-01 -4.404999999999999888e-02 -1.377205000000000013e+00 9.014500000000000290e-02 2.722970000000000113e-01 -1.313557000000000086e+00 1.721302000000000110e+00 -1.240728999999999971e+00 -5.244240000000000013e-01 -1.969279999999999919e-01 3.160769999999999968e-01 5.570739999999999581e-01 1.263099999999999987e-02 1.452963999999999922e+00 2.076119999999999910e-01 1.522026000000000101e+00 6.715489999999999515e-01 9.305210000000000425e-01 -3.272180000000000089e-01 -1.715289999999999870e-01 6.900579999999999492e-01 -1.566859999999999919e-01 9.796699999999999853e-02 -7.806299999999999351e-02 -6.574980000000000269e-01 3.585889999999999911e-01 -5.366000000000000110e-03 -7.821470000000000367e-01 -1.589205999999999896e+00 1.905353999999999992e+00 3.878900000000000126e-01 -3.370509999999999895e-01 1.421928000000000081e+00 3.889279999999999959e-01 -1.546150000000000024e-01 -1.412869999999999959e-01 -9.428450000000000442e-01 -4.570290000000000186e-01 4.832739999999999814e-01 -6.484649999999999581e-01 -1.935200000000000115e-02 5.092109999999999692e-01 -4.013200000000000101e-01 3.736419999999999741e-01 -1.166574000000000000e+00 1.375020000000000131e-01 6.478789999999999827e-01 1.410879999999999912e-01 8.301400000000000445e-02 1.186962999999999990e+00 4.826570000000000027e-01 -2.344399999999999956e-02 -3.428320000000000256e-01 -9.863439999999999985e-01 -4.152060000000000195e-01 4.349999999999999700e-03 -6.583769999999999900e-01 9.058000000000000079e-03 -4.645610000000000017e-01 -6.710500000000000353e-01 6.087099999999999733e-01 5.306520000000000126e-01 4.314069999999999849e-01 1.391936000000000062e+00 9.635089999999999488e-01 1.094087999999999949e+00 7.618300000000000072e-02 -1.103799999999999920e-02 6.709859999999999713e-01 -5.566410000000000524e-01 -5.294799999999999507e-01 -9.317579999999999751e-01 3.889710000000000112e-01 1.463139999999999996e-01 5.516480000000000272e-01 -1.289531999999999901e+00 -1.575749999999999929e-01 -7.085329999999999684e-01 1.744590000000000030e-01 1.161815999999999960e+00 -2.382947000000000148e+00 1.100970000000000004e+00 -1.260930000000000106e-01 -1.230585000000000040e+00 -1.014248999999999956e+00 -4.224829999999999974e-01 -1.660210000000000019e-01 -1.405089000000000032e+00 1.941469999999999863e-01 1.591229999999999867e-01 3.773699999999999971e-02 -1.693000000000000060e-02 -1.523579999999999934e-01 -5.795059999999999656e-01 6.508129999999999749e-01 8.185989999999999656e-01 7.729960000000000164e-01 -1.269830000000000125e-01 6.303900000000000059e-01 -6.027199999999999919e-02 8.987000000000000544e-02 7.374699999999999311e-02 -9.900590000000000224e-01 1.292262999999999940e+00 -9.483070000000000110e-01 -6.126890000000000391e-01 -1.129013999999999962e+00 -7.950300000000000422e-02 2.037090000000000012e-01 7.403999999999999471e-02 -7.072640000000000038e-01 -1.405929999999999958e-01 1.782700000000000118e-01 -6.599399999999999711e-02 5.508370000000000211e-01 -3.323610000000000175e-01 -2.625730000000000008e-01 -1.387804999999999955e+00 -1.987099999999999977e-02 -2.563520000000000243e-01 3.731500000000000095e-02 -3.429309999999999858e-01 3.049970000000000181e-01 5.020390000000000130e-01 -1.053625000000000034e+00 1.339391999999999916e+00 -7.863099999999999534e-01 -7.908450000000000202e-01 1.078861000000000070e+00 7.118700000000000028e-02 -9.744300000000000184e-02 -1.974819999999999909e-01 1.951050000000000006e-01 -7.837680000000000202e-01 2.261060000000000014e-01 -4.921249999999999791e-01 -7.297120000000000273e-01 -5.429619999999999447e-01 7.606669999999999821e-01 -9.953170000000000073e-01 -1.096934999999999993e+00 1.283203000000000094e+00 3.004680000000000129e-01 6.454060000000000352e-01 7.631740000000000190e-01 -6.323379999999999557e-01 -2.692140000000000088e-01 -1.818549999999999889e-01 7.270489999999999453e-01 -1.525390000000000079e-01 -7.566599999999999715e-02 -1.388290000000000080e-01 1.034165000000000001e+00 8.344329999999999803e-01
1.444007999999999958e+00 -1.090581999999999940e+00 -7.017759999999999554e-01 -5.613540000000000196e-01 1.901313999999999949e+00 5.366410000000000347e-01 -3.229500000000000148e-01 1.958266000000000062e+00 -3.880950000000000233e-01 -1.417612000000000094e+00 2.057380000000000042e-01 3.045749999999999846e-01 1.048310000000000075e+00 1.031973999999999947e+00 4.899799999999999989e-02 8.802759999999999474e-01 -1.175350000000000006e-01 4.055059999999999776e-01 -8.737430000000000474e-01 1.569571999999999967e+00 1.714549999999999963e-01 -5.026840000000000197e-01 4.537999999999999673e-02 1.528821999999999903e+00 -5.189759999999999929e-01 -1.618269999999999986e-01 7.754839999999999511e-01 -1.939980999999999955e+00 -1.471487999999999907e+00 9.612000000000000544e-01 -6.291480000000000405e-01 -2.128289999999999904e-01 -1.859134000000000064e+00 -6.207949999999999857e-01 -1.168527000000000093e+00 7.781489999999999796e-01 -1.487055999999999933e+00 -3.525249999999999773e-01 6.481630000000000447e-01 2.707899999999999890e-02 2.377460000000000129e-01 1.335282000000000080e+00 1.075253000000000014e+00 -5.546269999999999811e-01 -1.919153000000000109e+00 -1.476026999999999978e+00 1.579707999999999890e+00 -7.209229999999999805e-01 3.488999999999999879e-01 1.047239999999999976e-01 -5.014319999999999888e-01 -9.667499999999999982e-01 1.618737000000000092e+00 -5.323719999999999564e-01 9.873410000000000242e-01 -1.879089000000000009e+00 -1.053136999999999990e+00 -8.367510000000000225e-01 9.863060000000000160e-01 4.854229999999999934e-01 -1.573418999999999901e+00 4.549300000000000010e-01 -2.675330000000000208e-01 6.635330000000000394e-01 2.128999999999999990e-02 2.237337000000000131e+00 1.972734999999999905e+00 1.785749000000000031e+00 1.270043000000000033e+00 1.723775999999999975e+00 -3.214299999999999796e-02 -9.927390000000000381e-01 -2.547929999999999917e-01 -2.145199999999999996e+00 4.676819999999999866e-01 3.359429999999999916e-01 -6.432679999999999509e-01 8.216400000000000370e-01 3.398539999999999894e-01 -1.317681000000000102e+00 1.372740000000000071e+00 8.406500000000000083e-01 7.299900000000000277e-01 -8.144900000000000473e-01 2.434379999999999877e-01 1.850573000000000023e+00 -5.399450000000000083e-01 3.306299999999999795e-01 -1.478000999999999898e+00 -8.628609999999999891e-01 1.380943999999999949e+00 -8.909499999999999365e-02 3.864159999999999817e-01 -4.242190000000000127e-01 6.027699999999999725e-02 1.486053999999999986e+00 -2.033762999999999987e+00 9.849900000000000322e-01 -8.156830000000000469e-01 -1.681910000000000072e-01 -5.304879999999999596e-01 1.461860000000000104e-01 -3.595400000000000262e-01 5.801239999999999730e-01 -2.526880000000000237e-01 9.453430000000000444e-01 -3.226879999999999749e-01 -7.651130000000000431e-01 -5.313360000000000305e-01 1.012516999999999889e+00 1.022926000000000002e+00 1.229259000000000102e+00 -1.534649999999999903e-01 1.293816999999999995e+00 1.152790000000000065e-01 -1.460318999999999923e+00 1.695500000000000132e-02 -9.454609999999999959e-01 -1.460980000000000056e-01 -1.190666000000000002e+00 3.945460000000000078e-01 -2.312589999999999923e-01 -1.640030000000000099e-01 1.204134000000000038e+00 1.059492000000000100e+00 3.356779999999999764e-01 3.548819999999999752e-01 -4.630199999999999871e-01 1.453778000000000015e+00 1.061061999999999950e+00 1.447847000000000106e+00 -1.564249999999999918e+00 -3.674800000000000288e-02 8.829110000000000014e-01 -3.825529999999999764e-01 -7.999380000000000379e-01 -4.658729999999999816e-01 -8.479109999999999703e-01 -1.000920000000000004e-01 -6.548110000000000319e-01 8.379309999999999814e-01 1.784920000000000118e-01 2.799940000000000206e-01 3.735390000000000099e-01 -1.344460000000000099e-01 -6.255110000000000392e-01 -5.691500000000000448e-01 7.161349999999999660e-01 6.474109999999999587e-01 1.902320000000000122e-01 9.512129999999999752e-01 3.235560000000000103e-01 1.269487999999999950e+00 -5.446239999999999970e-01 1.503432000000000102e+00 6.862799999999999456e-02 -5.045819999999999750e-01 -4.531760000000000232e-01 -7.118299999999999628e-01 2.132999999999999913e-03 -8.159889999999999644e-01 -3.364869999999999806e-01 -8.754099999999999382e-02 8.880209999999999493e-01 9.768390000000000128e-01 2.723019999999999885e-01 -5.367969999999999686e-01 5.560500000000000165e-02 6.623080000000000078e-01 -4.780229999999999757e-01 7.543840000000000545e-01 -1.208000000000000089e-03 -4.383599999999999997e-02 5.351679999999999771e-01 1.046259999999999968e-01 -1.413062000000000040e+00 6.099059999999999482e-01 -1.224729999999999985e-01 -1.101072999999999968e+00 1.244531999999999972e+00 -1.420420000000000016e-01 -1.162580000000000002e-01 4.416260000000000185e-01 -3.132630000000000137e-01 4.988429999999999809e-01 -1.406905999999999990e+00 -1.137512000000000079e+00 -9.201390000000000402e-01 -1.356390999999999902e+00 -2.086279000000000217e+00 -1.717889999999999973e-01 -4.950919999999999765e-01 1.595610999999999891e+00 -9.255179999999999518e-01 1.518072000000000088e+00 4.002049999999999774e-01 -1.021187000000000067e+00 -4.210019999999999873e-01 5.319439999999999724e-01 -1.051139000000000046e+00 1.020572000000000035e+00 -7.615370000000000195e-01 -2.549549999999999872e-01 -1.009764000000000106e+00 -5.294569999999999554e-01 1.134433999999999942e+00 1.961549999999999960e-01 5.539549999999999752e-01 1.897379999999999900e-01 -4.715360000000000107e-01 -5.212020000000000541e-01 3.196769999999999889e-01 -9.697580000000000089e-01 -3.074990000000000223e-01 -1.268910000000000038e-01 -1.891512000000000082e+00 -5.726510000000000211e-01 -2.903319999999999790e-01 8.952780000000000182e-01 -1.619269999999999876e-01 -2.795759999999999912e-01 -5.624940000000000495e-01 -9.442279999999999562e-01 1.403955999999999982e+00 5.512569999999999970e-01 1.562805999999999917e+00 8.187539999999999818e-01 -2.310850000000000126e-01 -6.669500000000000428e-02 9.629149999999999654e-01 -3.440500000000000225e-01 2.765000000000000097e-03 4.573880000000000168e-01 -1.353763000000000050e+00 -1.995999999999999996e-01 -4.948620000000000241e-01 2.026390000000000136e-01 -1.274780000000000024e+00 -9.157370000000000232e-01 -1.052389999999999992e-01 5.980849999999999778e-01 -7.013999999999999402e-02 -4.700300000000000034e-01 -6.787370000000000347e-01 1.750861000000000001e+00 -5.769750000000000156e-01 1.095801000000000025e+00 4.704260000000000108e-01 1.049736999999999920e+00 1.498329999999999940e+00 -7.710160000000000347e-01 -2.170559999999999989e-01 8.141990000000000061e-01 -6.572010000000000352e-01 -3.286789999999999989e-01 -9.046340000000000492e-01 9.703399999999999803e-01 -1.399405000000000010e+00 5.288690000000000335e-01 -1.609936000000000034e+00 -4.697600000000000109e-01 6.658870000000000067e-01 5.392139999999999711e-01 -7.707289999999999974e-01 2.899550000000000183e-01 4.200740000000000030e-01 8.411999999999999339e-03 -1.309319999999999928e-01 -3.908019999999999827e-01 7.191389999999999727e-01 -2.090099999999999944e-02 8.669000000000000039e-01 -1.198569999999999913e+00 1.780961999999999934e+00 -1.629977000000000009e+00 -1.240191000000000043e+00 2.578949999999999854e-01 -9.805880000000000152e-01 6.497460000000000457e-01 -2.481576000000000004e+00 -1.268142000000000102e+00 1.584071999999999925e+00
-2.112179999999999891e-01 -8.733250000000000179e-01 3.692010000000000014e-01 -4.556129999999999902e-01 1.799610000000000098e-01 4.873489999999999767e-01 -1.286194999999999977e+00 5.038599999999999746e-01 -2.838080000000000047e-01 -1.027827000000000046e+00 -2.135759999999999881e-01 2.609480000000000133e-01 -1.197367999999999988e+00 7.897700000000000553e-02 1.583420999999999967e+00 -2.964479999999999893e-01 -3.835540000000000060e-01 -5.103469999999999951e-01 -5.995359999999999578e-01 4.959069999999999867e-01 1.151140000000000052e+00 -1.184539000000000009e+00 -1.985490000000000033e-01 -4.198549999999999782e-01 1.836359999999999937e-01 7.963850000000000096e-01 -5.515039999999999942e-01 1.492129999999999956e+00 -4.307899999999999924e-02 1.897739999999999982e-01 1.124538999999999955e+00 1.292770000000000030e-01 -4.717299999999999827e-01 1.488502999999999910e+00 5.957300000000000095e-02 -1.489247999999999905e+00 1.985576000000000008e+00 9.133219999999999672e-01 -1.202037000000000022e+00 -4.170000000000000095e-02 -6.860760000000000192e-01 -1.912555000000000005e+00 2.709379000000000204e+00 -3.898240000000000038e-01 -3.960259999999999891e-01 8.637029999999999985e-01 -1.593415999999999944e+00 1.181870000000000004e-01 1.685823999999999989e+00 -3.641920000000000157e-01 1.012076999999999893e+00 1.605840000000000045e-01 -1.126660000000000023e-01 1.120860000000000051e-01 6.162910000000000332e-01 8.278499999999999748e-02 -5.403909999999999547e-01 9.482979999999999743e-01 -1.623464000000000018e+00 1.541049999999999920e-01 -9.671969999999999734e-01 -2.151600000000000040e-02 2.134300000000000086e-01 -4.317250000000000254e-01 4.110619999999999830e-01 1.675560000000000105e-01 1.416967000000000088e+00 2.427940000000000098e-01 -3.946850000000000080e-01 -3.222929999999999962e-01 -7.505579999999999474e-01 1.706657000000000091e+00 -4.593130000000000268e-01 -1.883893999999999957e+00 4.857409999999999783e-01 -1.225405999999999995e+00 -6.959619999999999695e-01 -4.334350000000000147e-01 -2.432824999999999793e+00 -1.250410000000000132e-01 5.799450000000000438e-01 4.528280000000000083e-01 -5.827930000000000055e-01 8.313359999999999639e-01 1.892369999999999886e-01 1.883299999999999905e-02 1.044219999999999926e+00 -9.779999999999999805e-01 -9.002620000000000067e-01 -4.406970000000000054e-01 8.874819999999999931e-01 5.507159999999999833e-01 5.257730000000000459e-01 9.767820000000000391e-01 -2.275020000000000042e+00 -3.399719999999999964e-01 7.749169999999999670e-01 -3.514240000000000141e-01 1.252050000000000107e-01 1.167679999999999968e-01 -1.074113000000000095e+00 -9.437159999999999993e-01 -1.576923999999999992e+00 1.217690000000000022e-01 -1.217973999999999890e+00 1.544686999999999921e+00 3.199299999999999922e-01 9.776999999999999580e-02 1.221114999999999950e+00 -3.590010000000000145e-01 5.614810000000000079e-01 -7.575250000000000039e-01 6.843129999999999491e-01 1.864729999999999999e-01 2.289410000000000056e-01 3.592800000000000160e-02 8.874200000000000144e-02 -1.145245999999999986e+00 3.456759999999999833e-01 -4.209530000000000216e-01 2.464989999999999959e-01 4.581979999999999942e-01 1.405500000000000083e-01 2.450960000000000083e-01 1.094867999999999952e+00 -8.658540000000000125e-01 -7.072089999999999765e-01 -5.130519999999999525e-01 2.599238999999999855e+00 -3.297180000000000111e-01 -1.155280000000000057e-01 9.356599999999999639e-02 8.573200000000000265e-02 -1.029769999999999991e-01 9.025699999999999834e-01 2.812930000000000152e-01 9.807449999999999779e-01 4.418159999999999865e-01 -1.202476000000000100e+00 -2.948180000000000245e-01 -1.250275999999999943e+00 4.265100000000000141e-02 -8.838999999999999635e-03 5.889790000000000303e-01 -8.706930000000000502e-01 1.932760000000000034e-01 -9.423519999999999675e-01 2.490890000000000049e-01 -1.938900000000000068e-01 -5.675299999999999789e-02 9.300429999999999531e-01 -3.076119999999999965e-01 -1.479300000000000059e-02 -6.541529999999999845e-01 8.031829999999999803e-01 -2.844519999999999826e-01 -1.469888000000000083e+00 1.089231000000000060e+00 -5.411030000000000006e-01 3.170370000000000132e-01 -4.318640000000000256e-01 -2.438410000000000022e-01 4.884830000000000005e-01 -2.030460000000000043e-01 -5.217800000000000216e-01 -3.555280000000000107e-01 1.857050000000000090e-01 -3.374050000000000105e-01 2.270270000000000066e-01 1.279609999999999914e-01 -1.093640000000000029e-01 3.747799999999999743e-02 7.275000000000000216e-03 -1.248250000000000054e-01 1.816076999999999941e+00 1.286148999999999987e+00 8.992019999999999458e-01 -8.951299999999999812e-01 -1.760199999999999959e-02 -1.425364999999999993e+00 -2.194460000000000022e-01 1.266499000000000041e+00 -1.427035000000000053e+00 -1.031210000000000043e-01 6.063619999999999566e-01 -4.702560000000000073e-01 3.970739999999999825e-01 -1.275199999999999945e-02 5.099160000000000359e-01 2.102234000000000158e+00 9.485479999999999468e-01 -4.445500000000000146e-02 -3.993129999999999735e-01 8.118339999999999446e-01 9.062719999999999665e-01 -2.866199999999999998e-02 -7.366160000000000485e-01 -5.772499999999999853e-02 -9.243820000000000370e-01 -7.272480000000000055e-01 1.152207999999999899e+00 -1.314672999999999981e+00 -7.003589999999999538e-01 1.782549999999999968e-01 -4.772549999999999848e-01 -2.309670000000000056e-01 1.872096999999999900e+00 -2.247609999999999886e-01 2.096589999999999954e+00 2.726200000000000151e-02 -1.451985000000000081e+00 1.873793999999999960e+00 -1.113029999999999964e+00 1.357394999999999907e+00 -2.867629999999999901e-01 1.134880000000000111e+00 -2.498740000000000128e-01 2.110680000000000056e-01 1.588269999999999960e-01 2.543239999999999945e-01 6.785240000000000160e-01 1.408649000000000040e+00 -5.249899999999999706e-02 1.285250000000000004e-01 -1.359400000000000053e-01 -7.685750000000000082e-01 -9.254090000000000371e-01 -4.492590000000000194e-01 -1.664519999999999889e-01 -1.164570000000000050e-01 1.603500000000000064e-02 -3.107280000000000042e-01 -9.685399999999999565e-01 -5.708490000000000508e-01 9.239009999999999723e-01 6.240949999999999553e-01 -6.682829999999999604e-01 -1.211502000000000079e+00 8.307100000000000595e-02 2.746109999999999940e-01 4.403920000000000057e-01 1.180350000000000010e-01 6.954839999999999911e-01 1.795450000000000101e-01 1.395157999999999898e+00 -5.611850000000000449e-01 -1.135969000000000007e+00 -1.662633999999999945e+00 1.430744999999999933e+00 4.354259999999999797e-01 -6.490989999999999815e-01 -7.096999999999999975e-01 -7.098539999999999850e-01 -1.119799999999999962e-02 1.655999999999999920e-03 1.784989999999999910e-01 -1.010969999999999924e+00 6.543679999999999497e-01 -2.457729999999999915e-01 -1.436021999999999910e+00 -1.435348999999999986e+00 2.589469999999999827e-01 6.087660000000000293e-01 3.400590000000000002e-01 1.823170000000000068e-01 3.243659999999999877e-01 -3.124179999999999735e-01 -5.362949999999999662e-01 2.077880000000000005e-01 -8.753990000000000382e-01 4.752890000000000170e-01 -6.117740000000000400e-01 -1.494212000000000096e+00 5.005239999999999689e-01 1.696318999999999910e+00 2.173450000000000104e-01 2.892300000000000079e-02 1.061101999999999990e+00 -7.208579999999999988e-01 -1.366650000000000087e-01 8.392340000000000355e-01 1.035840000000000094e+00