-9.019900898900000357e+02
-9.003585624900000539e+02
-8.922644115800000009e+02
-9.327950344399999949e+02
-8.985308819900000117e+02
-8.933212618799999518e+02
-9.324091680799999722e+02
-9.153092067300000281e+02
-9.265366514999999481e+02
-9.016042533500000218e+02
-9.182527859599999829e+02
-9.390031821200000195e+02
-9.290404171300000371e+02
-9.387032568099999708e+02
-9.077592473600000176e+02
-9.123512537200000452e+02
-8.984190142600000399e+02
-9.301610954599999559e+02
-9.191603036000000202e+02
-9.143756681400000161e+02
-9.173062989300000254e+02
-9.339010516499999994e+02
-9.154564962599999944e+02
-9.071054269500000373e+02
-9.094310959800000091e+02
-9.173776003899999978e+02
-8.909168990900000153e+02
-9.322133541900000182e+02
-9.072594972800000050e+02
-9.035259192299999995e+02
-9.251309802900000250e+02
-9.395438651299999719e+02
-9.284405245599999716e+02
-9.251933207399999901e+02
-9.285228542199999993e+02
-8.947147455499999751e+02
-9.156138567100000500e+02
-9.258195953299999701e+02
-8.997458134500000142e+02
-9.032717829199999642e+02
-8.918854466599999569e+02
-9.022067660999999816e+02
-9.176401290699999436e+02
-9.200874798300000066e+02
-9.355427805099999432e+02
-9.409619445900000301e+02
-9.041410245199999736e+02
-9.383793601300000091e+02
-9.339223843500000157e+02
-8.979749586100000442e+02
-9.085754522500000121e+02
-9.429943637200000239e+02
-9.035691026499999907e+02
-9.062021566900000380e+02
-9.265588990999999623e+02
-9.149999944099999993e+02
-9.246372550900000533e+02
-9.037395771000000195e+02
-8.977274535400000559e+02
-9.018770211400000107e+02
-8.950712664300000370e+02
-9.333150599399999692e+02
-9.285307116400000496e+02
-9.116616355200000044e+02
-9.011032411899999488e+02
-9.018534532500000296e+02
-9.403452570700000024e+02
-9.158990228599999455e+02
-9.181003709699999717e+02
-9.110896589899999753e+02
-9.252740591000000450e+02
-9.361710941400000365e+02
-9.264867588199999773e+02
-9.109457813000000215e+02
-9.115229341199999453e+02
-8.978844349099999818e+02
-9.030241878699999916e+02
-9.024094242899999472e+02
-9.024591619499999524e+02
-9.001179416200000105e+02
-9.085530226500000026e+02
-9.002552347600000076e+02
-9.271261395999999877e+02
-9.354564407999999958e+02
-9.167441501800000196e+02
-9.381203462299999956e+02
-9.334699201199999834e+02
-9.351797222000000147e+02
-9.404496051700000407e+02
-9.132199649100000443e+02
-9.095755046199999470e+02
-9.406406986900000220e+02
-9.273591051800000287e+02
-9.214925695199999609e+02
-9.008294703499999514e+02
-9.007638332499999478e+02
-8.957633610499999577e+02
-9.245363026500000387e+02
-9.103374127299999827e+02
-9.043666608700000324e+02
