-9.639727129699999750e+02
-9.252032476800000040e+02
-9.333566538100000116e+02
-9.612567295500000455e+02
-9.315109206500000028e+02
-9.340758998799999517e+02
-9.451843051900000319e+02
-9.513288360699999657e+02
-9.573871063300000515e+02
-9.570187361299999793e+02
-9.581076409500000182e+02
-9.348472138099999711e+02
-9.250618183200000431e+02
-9.446385387699999683e+02
-9.339515271599999551e+02
-9.337346379299999626e+02
-9.479484211899999764e+02
-9.281115285900000345e+02
-9.572056589999999687e+02
-9.328448118799999520e+02
-9.307850657499999443e+02
-9.504354833200000030e+02
-9.579433856199999582e+02
-9.345630362800000057e+02
-9.434609130600000526e+02
-9.579902949099999887e+02
-9.507527754100000266e+02
-9.364253703699999960e+02
-9.542386237800000117e+02
-9.547035640699999703e+02
-9.455088825499999530e+02
-9.468387891999999511e+02
-9.300501958700000387e+02
-9.611703076000000010e+02
-9.503142337799999950e+02
-9.546428031899999951e+02
-9.326736744099999896e+02
-9.381636579800000391e+02
-9.567200124600000208e+02
-9.636794474299999820e+02
-9.530742445299999872e+02
-9.536356177899999693e+02
-9.475107520000000250e+02
-9.384918441099999882e+02
-9.505189532699999972e+02
-9.563605133300000034e+02
-9.329300788399999647e+02
-9.341592727900000455e+02
-9.377369640699999991e+02
-9.261723649399999658e+02
-9.490639781600000333e+02
-9.428537450699999454e+02
-9.616998287200000277e+02
-9.341405383000000029e+02
-9.362513518299999760e+02
-9.572270582999999533e+02
-9.307989688599999454e+02
-9.357509717299999465e+02
-9.487006300000000465e+02
-9.362857990500000369e+02
-9.532672951499999954e+02
-9.386519832000000179e+02
-9.489378532900000209e+02
-9.387845716099999436e+02
-9.280418069700000387e+02
-9.582577904700000317e+02
-9.510904253300000164e+02
-9.493103751700000430e+02
-9.411954763400000274e+02
-9.339301089800000000e+02
-9.421549140500000021e+02
-9.238160066699999788e+02
-9.499171568699999852e+02
-9.580562075799999775e+02
-9.503599260199999890e+02
-9.561812434900000426e+02
-9.376896177700000408e+02
-9.458806311399999913e+02
-9.505369494300000497e+02
-9.574059634499999447e+02
-9.484153383000000304e+02
-9.416283312199999500e+02
-9.314060208299999886e+02
-9.525250645800000484e+02
-9.615040198899999950e+02
-9.486051817799999526e+02
-9.330995478600000297e+02
-9.586437230100000306e+02
-9.547739072599999872e+02
-9.501692442300000039e+02
-9.338470696299999645e+02
-9.391918432200000098e+02
-9.579953060899999855e+02
-9.540716857099999970e+02
-9.573947913099999596e+02
-9.545443239899999526e+02
-9.465746205799999871e+02
-9.433098690100000567e+02
-9.547027246400000422e+02
-9.380389011099999834e+02
