1.018959978100000008e+01 0.000000000000000000e+00 0.000000000000000000e+00 3.577957500000000096e-02 1.063961469700000073e+01 0.000000000000000000e+00 -4.494648799999999972e-02 -4.889108899999999869e-02 1.020061223399999939e+01
1.009702217999999974e+01 0.000000000000000000e+00 0.000000000000000000e+00 3.545449999999999990e-02 1.054294848700000031e+01 0.000000000000000000e+00 -4.453812699999999680e-02 -4.844688899999999993e-02 1.010793458100000031e+01
1.024979619700000022e+01 0.000000000000000000e+00 0.000000000000000000e+00 3.599094800000000177e-02 1.070246963700000009e+01 0.000000000000000000e+00 -4.521201500000000123e-02 -4.917992000000000197e-02 1.026087370900000018e+01
1.009660636599999961e+01 0.000000000000000000e+00 0.000000000000000000e+00 3.545303999999999817e-02 1.054251430799999945e+01 0.000000000000000000e+00 -4.453629299999999763e-02 -4.844489400000000223e-02 1.010751831700000025e+01
1.042204603499999926e+01 0.000000000000000000e+00 0.000000000000000000e+00 3.659578200000000031e-02 1.088232674099999997e+01 0.000000000000000000e+00 -4.597181200000000079e-02 -5.000639800000000051e-02 1.043330970599999930e+01
1.034195153800000000e+01 0.000000000000000000e+00 0.000000000000000000e+00 3.631453999999999932e-02 1.079869494000000074e+01 0.000000000000000000e+00 -4.561851399999999890e-02 -4.962209399999999854e-02 1.035312864700000013e+01
1.028717143199999917e+01 0.000000000000000000e+00 0.000000000000000000e+00 3.612218600000000057e-02 1.074149551700000060e+01 0.000000000000000000e+00 -4.537687800000000243e-02 -4.935925099999999982e-02 1.029828933699999993e+01
1.021135253099999929e+01 0.000000000000000000e+00 0.000000000000000000e+00 3.585595700000000080e-02 1.066232813999999962e+01 0.000000000000000000e+00 -4.504244000000000303e-02 -4.899546199999999657e-02 1.022238849500000057e+01
1.035255221200000086e+01 0.000000000000000000e+00 0.000000000000000000e+00 3.635176300000000221e-02 1.080976378299999929e+01 0.000000000000000000e+00 -4.566527399999999876e-02 -4.967295699999999675e-02 1.036374077700000029e+01
1.030422299600000002e+01 0.000000000000000000e+00 0.000000000000000000e+00 3.618206100000000147e-02 1.075930014799999945e+01 0.000000000000000000e+00 -4.545209299999999897e-02 -4.944106699999999827e-02 1.031535932899999963e+01
1.019883102500000049e+01 0.000000000000000000e+00 0.000000000000000000e+00 3.581198900000000240e-02 1.064925363100000055e+01 0.000000000000000000e+00 -4.498720700000000128e-02 -4.893538199999999949e-02 1.020985345499999930e+01
1.009285858299999994e+01 0.000000000000000000e+00 0.000000000000000000e+00 3.543987999999999999e-02 1.053860100800000055e+01 0.000000000000000000e+00 -4.451976099999999797e-02 -4.842691200000000251e-02 1.010376648299999935e+01
1.043008060400000048e+01 0.000000000000000000e+00 0.000000000000000000e+00 3.662399499999999947e-02 1.089071614999999937e+01 0.000000000000000000e+00 -4.600725299999999796e-02 -5.004494899999999830e-02 1.044135295899999960e+01
1.028670048000000037e+01 0.000000000000000000e+00 0.000000000000000000e+00 3.612053300000000328e-02 1.074100376600000040e+01 0.000000000000000000e+00 -4.537480099999999933e-02 -4.935699200000000231e-02 1.029781787599999987e+01
1.016015043900000059e+01 0.000000000000000000e+00 0.000000000000000000e+00 3.567616700000000168e-02 1.060886475100000048e+01 0.000000000000000000e+00 -4.481658699999999801e-02 -4.874978700000000276e-02 1.017113106500000086e+01
1.011361934199999979e+01 0.000000000000000000e+00 0.000000000000000000e+00 3.551277900000000126e-02 1.056027864800000060e+01 0.000000000000000000e+00 -4.461133700000000091e-02 -4.852652500000000091e-02 1.012454967899999936e+01
1.021358536800000039e+01 0.000000000000000000e+00 0.000000000000000000e+00 3.586379800000000229e-02 1.066465958799999925e+01 0.000000000000000000e+00 -4.505228900000000231e-02 -4.900617499999999904e-02 1.022462374500000060e+01
1.010027478900000020e+01 0.000000000000000000e+00 0.000000000000000000e+00 3.546592099999999748e-02 1.054634474400000066e+01 0.000000000000000000e+00 -4.455247400000000163e-02 -4.846249600000000074e-02 1.011119070400000020e+01
1.036687478800000051e+01 0.000000000000000000e+00 0.000000000000000000e+00 3.640205500000000260e-02 1.082471890300000084e+01 0.000000000000000000e+00 -4.572845100000000329e-02 -4.974167899999999698e-02 1.037807883199999992e+01
1.017522491499999937e+01 0.000000000000000000e+00 0.000000000000000000e+00 3.572909900000000027e-02 1.062460497800000070e+01 0.000000000000000000e+00 -4.488307999999999881e-02 -4.882211699999999821e-02 1.018622183299999939e+01
1.022387595600000054e+01 0.000000000000000000e+00 0.000000000000000000e+00 3.589993200000000245e-02 1.067540465099999913e+01 0.000000000000000000e+00 -4.509768100000000057e-02 -4.905555100000000279e-02 1.023492545400000076e+01
1.030287470899999924e+01 0.000000000000000000e+00 0.000000000000000000e+00 3.617732600000000270e-02 1.075789231599999951e+01 0.000000000000000000e+00 -4.544614599999999976e-02 -4.943459800000000320e-02 1.031400958500000087e+01
1.036286131600000004e+01 0.000000000000000000e+00 0.000000000000000000e+00 3.638796200000000286e-02 1.082052817900000008e+01 0.000000000000000000e+00 -4.571074700000000296e-02 -4.972242200000000223e-02 1.037406102299999944e+01
1.022298268900000018e+01 0.000000000000000000e+00 0.000000000000000000e+00 3.589679500000000217e-02 1.067447193299999952e+01 0.000000000000000000e+00 -4.509374099999999969e-02 -4.905126499999999667e-02 1.023403122200000048e+01
1.026203699699999916e+01 0.000000000000000000e+00 0.000000000000000000e+00 3.603392999999999874e-02 1.071525104100000014e+01 0.000000000000000000e+00 -4.526601000000000236e-02 -4.923865300000000028e-02 1.027312773799999945e+01
1.022537679899999929e+01 0.000000000000000000e+00 0.000000000000000000e+00 3.590520199999999718e-02 1.067697177700000033e+01 0.000000000000000000e+00 -4.510430099999999942e-02 -4.906275200000000114e-02 1.023642791900000049e+01
1.039229030899999984e+01 0.000000000000000000e+00 0.000000000000000000e+00 3.649129899999999788e-02 1.085125687899999924e+01 0.000000000000000000e+00 -4.584055900000000294e-02 -4.986362600000000117e-02 1.040352182100000000e+01
1.027876675999999989e+01 0.000000000000000000e+00 0.000000000000000000e+00 3.609267399999999820e-02 1.073271966000000077e+01 0.000000000000000000e+00 -4.533980499999999692e-02 -4.931892400000000010e-02 1.028987558200000052e+01
1.019808282600000027e+01 0.000000000000000000e+00 0.000000000000000000e+00 3.580936199999999736e-02 1.064847238900000015e+01 0.000000000000000000e+00 -4.498390699999999659e-02 -4.893179200000000173e-02 1.020910444799999972e+01
1.038386458799999978e+01 0.000000000000000000e+00 0.000000000000000000e+00 3.646171299999999976e-02 1.084245904299999985e+01 0.000000000000000000e+00 -4.580339299999999780e-02 -4.982319799999999910e-02 1.039508699399999969e+01
1.029910396100000014e+01 0.000000000000000000e+00 0.000000000000000000e+00 3.616408599999999807e-02 1.075395503500000061e+01 0.000000000000000000e+00 -4.542951299999999776e-02 -4.941650499999999946e-02 1.031023476200000033e+01
1.009551654000000021e+01 0.000000000000000000e+00 0.000000000000000000e+00 3.544921300000000025e-02 1.054137635100000026e+01 0.000000000000000000e+00 -4.453148500000000259e-02 -4.843966499999999981e-02 1.010642731299999930e+01
1.015331878299999957e+01 0.000000000000000000e+00 0.000000000000000000e+00 3.565217899999999912e-02 1.060173138100000045e+01 0.000000000000000000e+00 -4.478645199999999743e-02 -4.871700799999999915e-02 1.016429202600000004e+01
1.004562528499999985e+01 0.000000000000000000e+00 0.000000000000000000e+00 3.527402599999999999e-02 1.048928169200000049e+01 0.000000000000000000e+00 -4.431141400000000036e-02 -4.820027999999999813e-02 1.005648213799999979e+01
1.046571876900000042e+01 0.000000000000000000e+00 0.000000000000000000e+00 3.674913400000000274e-02 1.092792824400000029e+01 0.000000000000000000e+00 -4.616445300000000113e-02 -5.021594599999999742e-02 1.047702963999999959e+01
1.016042200100000059e+01 0.000000000000000000e+00 0.000000000000000000e+00 3.567712099999999914e-02 1.060914830599999981e+01 0.000000000000000000e+00 -4.481778399999999940e-02 -4.875108999999999693e-02 1.017140292100000032e+01
1.011642703899999951e+01 0.000000000000000000e+00 0.000000000000000000e+00 3.552263800000000221e-02 1.056321034499999989e+01 0.000000000000000000e+00 -4.462372199999999761e-02 -4.853999600000000192e-02 1.012736041099999973e+01
1.018489602700000063e+01 0.000000000000000000e+00 0.000000000000000000e+00 3.576305800000000035e-02 1.063470320699999938e+01 0.000000000000000000e+00 -4.492573999999999873e-02 -4.886851999999999863e-02 1.019590339700000037e+01
1.028262525399999916e+01 0.000000000000000000e+00 0.000000000000000000e+00 3.610622299999999979e-02 1.073674856100000063e+01 0.000000000000000000e+00 -4.535682500000000339e-02 -4.933743799999999735e-02 1.029373824600000020e+01
1.040152222899999934e+01 0.000000000000000000e+00 0.000000000000000000e+00 3.652371599999999774e-02 1.086089651800000055e+01 0.000000000000000000e+00 -4.588128100000000292e-02 -4.990792200000000040e-02 1.041276371900000086e+01
1.027935572600000036e+01 0.000000000000000000e+00 0.000000000000000000e+00 3.609474199999999910e-02 1.073333463700000046e+01 0.000000000000000000e+00 -4.534240300000000334e-02 -4.932174999999999754e-02 1.029046518400000032e+01
1.017158158900000053e+01 0.000000000000000000e+00 0.000000000000000000e+00 3.571630600000000322e-02 1.062080074700000054e+01 0.000000000000000000e+00 -4.486700999999999884e-02 -4.880463499999999899e-02 1.018257456899999980e+01
1.043305166600000078e+01 0.000000000000000000e+00 0.000000000000000000e+00 3.663442699999999719e-02 1.089381842599999928e+01 0.000000000000000000e+00 -4.602035799999999732e-02 -5.005920400000000298e-02 1.044432723199999913e+01
1.005892114000000070e+01 0.000000000000000000e+00 0.000000000000000000e+00 3.532071199999999717e-02 1.050316474699999958e+01 0.000000000000000000e+00 -4.437006300000000125e-02 -4.826407499999999656e-02 1.006979236199999939e+01
1.016867863200000066e+01 0.000000000000000000e+00 0.000000000000000000e+00 3.570611299999999766e-02 1.061776958399999948e+01 0.000000000000000000e+00 -4.485420500000000116e-02 -4.879070700000000260e-02 1.017966847599999980e+01
1.044661375999999997e+01 0.000000000000000000e+00 0.000000000000000000e+00 3.668204900000000129e-02 1.090797947799999967e+01 0.000000000000000000e+00 -4.608018099999999784e-02 -5.012427700000000180e-02 1.045790398199999949e+01
1.018358885500000000e+01 0.000000000000000000e+00 0.000000000000000000e+00 3.575846800000000159e-02 1.063333830400000046e+01 0.000000000000000000e+00 -4.491997400000000140e-02 -4.886224799999999702e-02 1.019459481200000006e+01
1.034738807399999949e+01 0.000000000000000000e+00 0.000000000000000000e+00 3.633362999999999871e-02 1.080437157499999934e+01 0.000000000000000000e+00 -4.564249499999999821e-02 -4.964817900000000062e-02 1.035857105800000078e+01
1.036115739100000077e+01 0.000000000000000000e+00 0.000000000000000000e+00 3.638197900000000179e-02 1.081874900200000056e+01 0.000000000000000000e+00 -4.570323099999999694e-02 -4.971424599999999666e-02 1.037235525600000052e+01
1.028102103199999995e+01 0.000000000000000000e+00 0.000000000000000000e+00 3.610059000000000184e-02 1.073507348999999955e+01 0.000000000000000000e+00 -4.534974900000000170e-02 -4.932974100000000334e-02 1.029213228999999963e+01
1.038094286199999949e+01 0.000000000000000000e+00 0.000000000000000000e+00 3.645145400000000119e-02 1.083940828100000076e+01 0.000000000000000000e+00 -4.579050500000000218e-02 -4.980917900000000204e-02 1.039216211099999931e+01
1.029507822799999950e+01 0.000000000000000000e+00 0.000000000000000000e+00 3.614995000000000014e-02 1.074975150999999940e+01 0.000000000000000000e+00 -4.541175499999999809e-02 -4.939718900000000107e-02 1.030620467800000029e+01
1.009561143200000011e+01 0.000000000000000000e+00 0.000000000000000000e+00 3.544954599999999845e-02 1.054147543400000053e+01 0.000000000000000000e+00 -4.453190399999999716e-02 -4.844012000000000318e-02 1.010652230800000062e+01
1.029684668900000055e+01 0.000000000000000000e+00 0.000000000000000000e+00 3.615615999999999969e-02 1.075159807300000026e+01 0.000000000000000000e+00 -4.541955599999999982e-02 -4.940567399999999665e-02 1.030797504999999958e+01
1.033798486300000086e+01 0.000000000000000000e+00 0.000000000000000000e+00 3.630061200000000293e-02 1.079455307899999994e+01 0.000000000000000000e+00 -4.560101700000000063e-02 -4.960306099999999691e-02 1.034915768499999977e+01
1.029391056899999946e+01 0.000000000000000000e+00 0.000000000000000000e+00 3.614585000000000020e-02 1.074853228199999933e+01 0.000000000000000000e+00 -4.540660500000000266e-02 -4.939158700000000068e-02 1.030503575700000063e+01
1.008582345900000021e+01 0.000000000000000000e+00 0.000000000000000000e+00 3.541517699999999907e-02 1.053125518400000082e+01 0.000000000000000000e+00 -4.448872899999999769e-02 -4.839315599999999967e-02 1.009672375599999938e+01
1.029647222600000056e+01 0.000000000000000000e+00 0.000000000000000000e+00 3.615484499999999796e-02 1.075120707199999970e+01 0.000000000000000000e+00 -4.541790400000000200e-02 -4.940387799999999829e-02 1.030760018299999992e+01
1.020833013300000047e+01 0.000000000000000000e+00 0.000000000000000000e+00 3.584534400000000121e-02 1.065917226000000007e+01 0.000000000000000000e+00 -4.502910799999999825e-02 -4.898095999999999700e-02 1.021936282999999968e+01
1.035363207900000049e+01 0.000000000000000000e+00 0.000000000000000000e+00 3.635555499999999773e-02 1.081089134199999968e+01 0.000000000000000000e+00 -4.567003699999999666e-02 -4.967813799999999669e-02 1.036482181200000063e+01
1.037311051900000081e+01 0.000000000000000000e+00 0.000000000000000000e+00 3.642395100000000302e-02 1.083123003000000040e+01 0.000000000000000000e+00 -4.575595699999999988e-02 -4.977159899999999970e-02 1.038432130300000011e+01
1.031277677699999984e+01 0.000000000000000000e+00 0.000000000000000000e+00 3.621209599999999917e-02 1.076823169999999941e+01 0.000000000000000000e+00 -4.548982399999999815e-02 -4.948210900000000328e-02 1.032392235500000055e+01
1.038803838699999993e+01 0.000000000000000000e+00 0.000000000000000000e+00 3.647636900000000154e-02 1.084681717399999989e+01 0.000000000000000000e+00 -4.582180400000000070e-02 -4.984322499999999795e-02 1.039926530400000004e+01
1.028715590900000088e+01 0.000000000000000000e+00 0.000000000000000000e+00 3.612213200000000124e-02 1.074147930800000061e+01 0.000000000000000000e+00 -4.537680999999999659e-02 -4.935917699999999714e-02 1.029827379700000023e+01
1.040290357900000018e+01 0.000000000000000000e+00 0.000000000000000000e+00 3.652856599999999843e-02 1.086233887400000064e+01 0.000000000000000000e+00 -4.588737500000000108e-02 -4.991455000000000197e-02 1.041414656100000080e+01
1.025726331000000080e+01 0.000000000000000000e+00 0.000000000000000000e+00 3.601716700000000271e-02 1.071026652800000001e+01 0.000000000000000000e+00 -4.524495299999999748e-02 -4.921574799999999666e-02 1.026834889100000048e+01
1.025261391099999919e+01 0.000000000000000000e+00 0.000000000000000000e+00 3.600084199999999818e-02 1.070541179299999968e+01 0.000000000000000000e+00 -4.522444400000000253e-02 -4.919343999999999800e-02 1.026369446800000063e+01
1.047043698899999953e+01 0.000000000000000000e+00 0.000000000000000000e+00 3.676570199999999733e-02 1.093285483900000088e+01 0.000000000000000000e+00 -4.618526600000000260e-02 -5.023858400000000279e-02 1.048175295899999959e+01
1.039650854499999966e+01 0.000000000000000000e+00 0.000000000000000000e+00 3.650611100000000081e-02 1.085566140999999973e+01 0.000000000000000000e+00 -4.585916599999999982e-02 -4.988386599999999893e-02 1.040774461700000053e+01
1.032987313299999954e+01 0.000000000000000000e+00 0.000000000000000000e+00 3.627212800000000070e-02 1.078608310199999920e+01 0.000000000000000000e+00 -4.556523600000000201e-02 -4.956413999999999959e-02 1.034103718799999960e+01
1.031290498299999925e+01 0.000000000000000000e+00 0.000000000000000000e+00 3.621254699999999771e-02 1.076836556800000011e+01 0.000000000000000000e+00 -4.549038899999999913e-02 -4.948272399999999877e-02 1.032405069900000072e+01
1.043604293099999936e+01 0.000000000000000000e+00 0.000000000000000000e+00 3.664493099999999864e-02 1.089694179700000021e+01 0.000000000000000000e+00 -4.603355299999999789e-02 -5.007355699999999771e-02 1.044732172900000045e+01
1.027809247299999917e+01 0.000000000000000000e+00 0.000000000000000000e+00 3.609030700000000202e-02 1.073201559299999985e+01 0.000000000000000000e+00 -4.533683100000000105e-02 -4.931568900000000283e-02 1.028920056599999988e+01
1.015043176700000060e+01 0.000000000000000000e+00 0.000000000000000000e+00 3.564204099999999931e-02 1.059871686199999985e+01 0.000000000000000000e+00 -4.477371699999999760e-02 -4.870315599999999745e-02 1.016140189000000049e+01
1.046699790499999949e+01 0.000000000000000000e+00 0.000000000000000000e+00 3.675362599999999758e-02 1.092926387199999994e+01 0.000000000000000000e+00 -4.617009600000000075e-02 -5.022208300000000070e-02 1.047831015799999932e+01
1.005017672099999970e+01 0.000000000000000000e+00 0.000000000000000000e+00 3.529000699999999824e-02 1.049403413799999996e+01 0.000000000000000000e+00 -4.433149100000000065e-02 -4.822211800000000131e-02 1.006103849299999986e+01
1.012792434600000036e+01 0.000000000000000000e+00 0.000000000000000000e+00 3.556300899999999959e-02 1.057521541999999926e+01 0.000000000000000000e+00 -4.467443699999999740e-02 -4.859516199999999730e-02 1.013887014400000020e+01
1.042104870000000005e+01 0.000000000000000000e+00 0.000000000000000000e+00 3.659227999999999786e-02 1.088128535899999960e+01 0.000000000000000000e+00 -4.596741299999999864e-02 -5.000161300000000031e-02 1.043231129299999971e+01
1.031975892400000028e+01 0.000000000000000000e+00 0.000000000000000000e+00 3.623661300000000085e-02 1.077552220799999994e+01 0.000000000000000000e+00 -4.552062199999999670e-02 -4.951561000000000157e-02 1.033091204800000007e+01
1.018392242000000003e+01 0.000000000000000000e+00 0.000000000000000000e+00 3.575964000000000226e-02 1.063368660100000085e+01 0.000000000000000000e+00 -4.492144499999999735e-02 -4.886384800000000139e-02 1.019492873799999977e+01
1.030790024600000088e+01 0.000000000000000000e+00 0.000000000000000000e+00 3.619497299999999834e-02 1.076313980099999945e+01 0.000000000000000000e+00 -4.546831300000000325e-02 -4.945871100000000242e-02 1.031904055400000075e+01
1.030611417399999930e+01 0.000000000000000000e+00 0.000000000000000000e+00 3.618870099999999673e-02 1.076127484899999942e+01 0.000000000000000000e+00 -4.546043500000000043e-02 -4.945014100000000301e-02 1.031725255099999927e+01
1.025857109400000056e+01 0.000000000000000000e+00 0.000000000000000000e+00 3.602175999999999989e-02 1.071163207000000028e+01 0.000000000000000000e+00 -4.525072200000000017e-02 -4.922202299999999670e-02 1.026965808899999999e+01
1.024014633800000063e+01 0.000000000000000000e+00 0.000000000000000000e+00 3.595706299999999744e-02 1.069239360000000083e+01 0.000000000000000000e+00 -4.516944999999999988e-02 -4.913361799999999696e-02 1.025121342099999922e+01
1.010016221799999947e+01 0.000000000000000000e+00 0.000000000000000000e+00 3.546552599999999722e-02 1.054622720200000074e+01 0.000000000000000000e+00 -4.455197799999999902e-02 -4.846195600000000048e-02 1.011107801200000011e+01
1.032496716600000042e+01 0.000000000000000000e+00 0.000000000000000000e+00 3.625490199999999857e-02 1.078096046699999988e+01 0.000000000000000000e+00 -4.554359599999999869e-02 -4.954059999999999714e-02 1.033612591800000047e+01
1.043566921899999933e+01 0.000000000000000000e+00 0.000000000000000000e+00 3.664361900000000227e-02 1.089655158200000074e+01 0.000000000000000000e+00 -4.603190399999999849e-02 -5.007176399999999777e-02 1.044694761400000083e+01
1.030753186799999987e+01 0.000000000000000000e+00 0.000000000000000000e+00 3.619367999999999891e-02 1.076275515400000060e+01 0.000000000000000000e+00 -4.546668799999999816e-02 -4.945694300000000321e-02 1.031867177800000057e+01
1.019928923700000034e+01 0.000000000000000000e+00 0.000000000000000000e+00 3.581359800000000204e-02 1.064973207999999971e+01 0.000000000000000000e+00 -4.498922799999999916e-02 -4.893758000000000136e-02 1.021031216199999925e+01
1.041282325599999936e+01 0.000000000000000000e+00 0.000000000000000000e+00 3.656339799999999696e-02 1.087269664599999963e+01 0.000000000000000000e+00 -4.593113000000000057e-02 -4.996214599999999895e-02 1.042407696000000072e+01
1.015051983300000060e+01 0.000000000000000000e+00 0.000000000000000000e+00 3.564235000000000320e-02 1.059880881700000010e+01 0.000000000000000000e+00 -4.477410600000000102e-02 -4.870357799999999737e-02 1.016149005099999947e+01
1.032698139799999915e+01 0.000000000000000000e+00 0.000000000000000000e+00 3.626197400000000237e-02 1.078306365599999950e+01 0.000000000000000000e+00 -4.555248099999999883e-02 -4.955026500000000306e-02 1.033814232799999999e+01
1.031811385299999984e+01 0.000000000000000000e+00 0.000000000000000000e+00 3.623083700000000185e-02 1.077380448299999927e+01 0.000000000000000000e+00 -4.551336599999999954e-02 -4.950771699999999970e-02 1.032926519899999995e+01
1.036915057000000040e+01 0.000000000000000000e+00 0.000000000000000000e+00 3.641004600000000146e-02 1.082709519399999998e+01 0.000000000000000000e+00 -4.573848999999999970e-02 -4.975259800000000204e-02 1.038035707499999916e+01
1.008215448099999989e+01 0.000000000000000000e+00 0.000000000000000000e+00 3.540229300000000134e-02 1.052742416799999958e+01 0.000000000000000000e+00 -4.447254500000000221e-02 -4.837555200000000222e-02 1.009305081299999962e+01
1.035534458200000074e+01 0.000000000000000000e+00 0.000000000000000000e+00 3.636156799999999689e-02 1.081267947499999948e+01 0.000000000000000000e+00 -4.567759099999999656e-02 -4.968635500000000149e-02 1.036653616499999941e+01
1.026658020900000068e+01 0.000000000000000000e+00 0.000000000000000000e+00 3.604988299999999785e-02 1.071999489999999966e+01 0.000000000000000000e+00 -4.528605000000000130e-02 -4.926045200000000318e-02 1.027767586000000044e+01
1.028082529399999956e+01 0.000000000000000000e+00 0.000000000000000000e+00 3.609990300000000263e-02 1.073486910699999974e+01 0.000000000000000000e+00 -4.534888499999999850e-02 -4.932880199999999798e-02 1.029193633999999946e+01
1.019664706900000084e+01 0.000000000000000000e+00 0.000000000000000000e+00 3.580432100000000006e-02 1.064697322299999982e+01 0.000000000000000000e+00 -4.497757399999999933e-02 -4.892490299999999875e-02 1.020766713899999978e+01
1.008821316899999943e+01 0.000000000000000000e+00 0.000000000000000000e+00 3.542356800000000250e-02 1.053375043299999980e+01 0.000000000000000000e+00 -4.449927000000000049e-02 -4.840462200000000131e-02 1.009911604899999915e+01
