-9.065843474299999798e+02
-9.129846860200000265e+02
-9.119512036700000408e+02
-9.183165977600000360e+02
-8.889873979100000270e+02
-9.099017658699999629e+02
-8.938527754000000414e+02
-8.997700010999999449e+02
-9.112729747199999792e+02
-9.106753622300000188e+02
-9.095129868999999871e+02
-9.110060993700000154e+02
-8.914991796799999975e+02
-9.113851271600000246e+02
-9.061596464199999446e+02
-9.176483834499999830e+02
-9.115740810800000418e+02
-9.106724074200000132e+02
-9.098974281399999882e+02
-9.106674663300000248e+02
-9.092386007500000460e+02
-8.916108818000000156e+02
-8.901359559700000545e+02
-9.156096615999999813e+02
-9.159873566500000379e+02
-9.054084995900000195e+02
-8.897055377399999543e+02
-9.048634375200000477e+02
-9.082474110699999983e+02
-8.933660833599999478e+02
-9.056507761000000301e+02
-9.144823098399999708e+02
-9.148679808900000126e+02
-9.207048930500000097e+02
-8.905004853299999468e+02
-9.113999591499999724e+02
-9.097789608000000499e+02
-9.067930781600000500e+02
-9.088757272799999782e+02
-8.872807314399999541e+02
-9.114590164600000435e+02
-9.115233662800000047e+02
-8.905602427000000034e+02
-9.140733985499999790e+02
-9.026821887700000389e+02
-8.946331328899999562e+02
-9.159397176500000342e+02
-9.053819634400000496e+02
-8.971411182699999927e+02
-9.152162388199999441e+02
-8.897574984899999890e+02
-9.041570537000000058e+02
-9.118387374699999555e+02
-9.022079981900000121e+02
-8.974227897700000085e+02
-9.097920148099999551e+02
-9.116312538199999835e+02
-9.009557120900000200e+02
-9.032859124899999870e+02
-8.925480299600000080e+02
-8.944033296200000223e+02
-9.100587044200000264e+02
-8.994059015899999849e+02
-9.100282835499999692e+02
-8.876009401699999444e+02
-9.011604785199999696e+02
-9.124034337000000505e+02
-8.892560295099999621e+02
-8.885708605800000441e+02
-8.935090008099999750e+02
-9.043111126999999669e+02
-8.961917524599999751e+02
-9.028406406100000368e+02
-9.055893193699999983e+02
-8.953470132899999498e+02
-9.106201444199999742e+02
-9.018082585099999733e+02
-8.930538160199999993e+02
-8.950419463900000210e+02
-9.173711285299999645e+02
-8.962865763700000343e+02
-9.111648100800000520e+02
-9.032929537300000220e+02
-9.087571187800000416e+02
-9.119217338600000176e+02
-9.064075013299999455e+02
-8.841478363400000262e+02
-9.025401413800000228e+02
-9.008869117199999437e+02
-8.899474312099999906e+02
-9.175646139699999821e+02
-9.091619137999999793e+02
-8.936228573299999880e+02
-8.926969242999999778e+02
-9.104580186399999775e+02
-8.966058412099999941e+02
-8.908938971200000196e+02
-9.049544120399999656e+02
-9.040556315100000120e+02
-9.155214650499999607e+02
