1.044476163200000052e+01 0.000000000000000000e+00 0.000000000000000000e+00 -6.972159000000000342e-03 1.044478780100000037e+01 0.000000000000000000e+00 6.183230000000000497e-04 6.556809999999999722e-04 1.074992357900000073e+01
1.044015343200000068e+01 0.000000000000000000e+00 0.000000000000000000e+00 -6.969081999999999708e-03 1.044017958999999962e+01 0.000000000000000000e+00 6.180499999999999796e-04 6.553909999999999597e-04 1.074518074200000051e+01
1.053457767099999920e+01 0.000000000000000000e+00 0.000000000000000000e+00 -7.032113000000000426e-03 1.053460406599999999e+01 0.000000000000000000e+00 6.236399999999999583e-04 6.613189999999999477e-04 1.084236375100000060e+01
1.009911443999999925e+01 0.000000000000000000e+00 0.000000000000000000e+00 -6.741429999999999645e-03 1.009913974300000028e+01 0.000000000000000000e+00 5.978609999999999871e-04 6.339819999999999484e-04 1.039417770100000027e+01
1.020829873899999996e+01 0.000000000000000000e+00 0.000000000000000000e+00 -6.814312999999999794e-03 1.020832431500000048e+01 0.000000000000000000e+00 6.043249999999999577e-04 6.408359999999999881e-04 1.050655200899999997e+01
1.034781710899999929e+01 0.000000000000000000e+00 0.000000000000000000e+00 -6.907446000000000245e-03 1.034784303600000044e+01 0.000000000000000000e+00 6.125840000000000018e-04 6.495949999999999901e-04 1.065014665200000010e+01
1.041135553900000055e+01 0.000000000000000000e+00 0.000000000000000000e+00 -6.949859000000000071e-03 1.041138162400000056e+01 0.000000000000000000e+00 6.163450000000000222e-04 6.535840000000000226e-04 1.071554146799999963e+01
1.040643922299999957e+01 0.000000000000000000e+00 0.000000000000000000e+00 -6.946576999999999787e-03 1.040646529600000036e+01 0.000000000000000000e+00 6.160539999999999940e-04 6.532750000000000362e-04 1.071048151399999959e+01
1.040540092400000027e+01 0.000000000000000000e+00 0.000000000000000000e+00 -6.945884000000000259e-03 1.040542699400000082e+01 0.000000000000000000e+00 6.159930000000000093e-04 6.532099999999999886e-04 1.070941287900000027e+01
1.021337976200000064e+01 0.000000000000000000e+00 0.000000000000000000e+00 -6.817705000000000293e-03 1.021340535100000046e+01 0.000000000000000000e+00 6.046250000000000192e-04 6.411550000000000235e-04 1.051178148300000004e+01
1.022484119299999961e+01 0.000000000000000000e+00 0.000000000000000000e+00 -6.825356000000000305e-03 1.022486681200000014e+01 0.000000000000000000e+00 6.053039999999999766e-04 6.418749999999999760e-04 1.052357778100000019e+01
1.045012981500000038e+01 0.000000000000000000e+00 0.000000000000000000e+00 -6.975742000000000054e-03 1.045015599799999961e+01 0.000000000000000000e+00 6.186409999999999609e-04 6.560179999999999657e-04 1.075544860299999961e+01
1.003720082100000077e+01 0.000000000000000000e+00 0.000000000000000000e+00 -6.700100999999999973e-03 1.003722596899999964e+01 0.000000000000000000e+00 5.941959999999999603e-04 6.300960000000000198e-04 1.033045516700000022e+01
1.030868873900000082e+01 0.000000000000000000e+00 0.000000000000000000e+00 -6.881326000000000109e-03 1.030871456799999919e+01 0.000000000000000000e+00 6.102679999999999650e-04 6.471390000000000258e-04 1.060987507900000004e+01
1.045641838300000082e+01 0.000000000000000000e+00 0.000000000000000000e+00 -6.979939999999999582e-03 1.045644458099999952e+01 0.000000000000000000e+00 6.190129999999999634e-04 6.564119999999999894e-04 1.076192090199999996e+01
1.034443905900000082e+01 0.000000000000000000e+00 0.000000000000000000e+00 -6.905190999999999760e-03 1.034446497699999945e+01 0.000000000000000000e+00 6.123839999999999969e-04 6.493830000000000132e-04 1.064666990699999971e+01
1.025547112399999961e+01 0.000000000000000000e+00 0.000000000000000000e+00 -6.845801999999999790e-03 1.025549681899999932e+01 0.000000000000000000e+00 6.071170000000000082e-04 6.437980000000000048e-04 1.055510261799999938e+01
1.027500900899999969e+01 0.000000000000000000e+00 0.000000000000000000e+00 -6.858844000000000225e-03 1.027503475299999991e+01 0.000000000000000000e+00 6.082740000000000109e-04 6.450240000000000097e-04 1.057521133600000063e+01
1.049625809199999971e+01 0.000000000000000000e+00 0.000000000000000000e+00 -7.006534000000000026e-03 1.049628438999999958e+01 0.000000000000000000e+00 6.213720000000000267e-04 6.589130000000000117e-04 1.080292459800000060e+01
1.004890530299999973e+01 0.000000000000000000e+00 0.000000000000000000e+00 -6.707913999999999717e-03 1.004893047999999922e+01 0.000000000000000000e+00 5.948890000000000297e-04 6.308299999999999758e-04 1.034250161599999984e+01
1.025175679500000037e+01 0.000000000000000000e+00 0.000000000000000000e+00 -6.843323000000000114e-03 1.025178248099999934e+01 0.000000000000000000e+00 6.068970000000000137e-04 6.435650000000000225e-04 1.055127976900000064e+01
1.006735668299999986e+01 0.000000000000000000e+00 0.000000000000000000e+00 -6.720231000000000121e-03 1.006738190699999969e+01 0.000000000000000000e+00 5.959809999999999847e-04 6.319890000000000100e-04 1.036149208600000016e+01
1.003498626200000032e+01 0.000000000000000000e+00 0.000000000000000000e+00 -6.698622999999999904e-03 1.003501140400000047e+01 0.000000000000000000e+00 5.940649999999999577e-04 6.299569999999999996e-04 1.032817590500000016e+01
1.037738928599999966e+01 0.000000000000000000e+00 0.000000000000000000e+00 -6.927186000000000107e-03 1.037741528599999974e+01 0.000000000000000000e+00 6.143350000000000330e-04 6.514510000000000483e-04 1.068058283200000069e+01
1.015328738400000042e+01 0.000000000000000000e+00 0.000000000000000000e+00 -6.777591999999999818e-03 1.015331282300000026e+01 0.000000000000000000e+00 6.010679999999999582e-04 6.373830000000000467e-04 1.044993340199999921e+01
1.028664247799999920e+01 0.000000000000000000e+00 0.000000000000000000e+00 -6.866610000000000422e-03 1.028666825100000004e+01 0.000000000000000000e+00 6.089630000000000173e-04 6.457550000000000269e-04 1.058718469799999973e+01
1.037904510399999936e+01 0.000000000000000000e+00 0.000000000000000000e+00 -6.928290999999999616e-03 1.037907110899999985e+01 0.000000000000000000e+00 6.144329999999999497e-04 6.515549999999999510e-04 1.068228702799999930e+01
1.034138711900000018e+01 0.000000000000000000e+00 0.000000000000000000e+00 -6.903153000000000414e-03 1.034141302899999992e+01 0.000000000000000000e+00 6.122029999999999660e-04 6.491910000000000259e-04 1.064352879900000026e+01
1.039028298600000078e+01 0.000000000000000000e+00 0.000000000000000000e+00 -6.935792999999999993e-03 1.039030901799999995e+01 0.000000000000000000e+00 6.150980000000000119e-04 6.522610000000000083e-04 1.069385324399999959e+01
1.024879804599999922e+01 0.000000000000000000e+00 0.000000000000000000e+00 -6.841347999999999700e-03 1.024882372399999930e+01 0.000000000000000000e+00 6.067219999999999688e-04 6.433790000000000212e-04 1.054823457400000031e+01
1.017302858999999948e+01 0.000000000000000000e+00 0.000000000000000000e+00 -6.790769000000000319e-03 1.017305407899999992e+01 0.000000000000000000e+00 6.022370000000000414e-04 6.386220000000000395e-04 1.047025138200000072e+01
1.003841160400000021e+01 0.000000000000000000e+00 0.000000000000000000e+00 -6.700908999999999685e-03 1.003843675499999932e+01 0.000000000000000000e+00 5.942669999999999940e-04 6.301720000000000238e-04 1.033170132499999916e+01
1.003669192899999985e+01 0.000000000000000000e+00 0.000000000000000000e+00 -6.699761000000000258e-03 1.003671707600000040e+01 0.000000000000000000e+00 5.941660000000000301e-04 6.300639999999999496e-04 1.032993140700000012e+01
1.044475786299999953e+01 0.000000000000000000e+00 0.000000000000000000e+00 -6.972156000000000187e-03 1.044478403199999939e+01 0.000000000000000000e+00 6.183230000000000497e-04 6.556799999999999564e-04 1.074991969899999944e+01
1.024300634499999951e+01 0.000000000000000000e+00 0.000000000000000000e+00 -6.837481999999999761e-03 1.024303200800000013e+01 0.000000000000000000e+00 6.063789999999999892e-04 6.430150000000000362e-04 1.054227365799999916e+01
1.002921457799999949e+01 0.000000000000000000e+00 0.000000000000000000e+00 -6.694770000000000061e-03 1.002923970600000025e+01 0.000000000000000000e+00 5.937229999999999938e-04 6.295940000000000304e-04 1.032223559200000018e+01
1.031694297900000024e+01 0.000000000000000000e+00 0.000000000000000000e+00 -6.886836000000000346e-03 1.031696882800000026e+01 0.000000000000000000e+00 6.107559999999999508e-04 6.476570000000000504e-04 1.061837048099999947e+01
1.015276895400000079e+01 0.000000000000000000e+00 0.000000000000000000e+00 -6.777245999999999791e-03 1.015279439200000056e+01 0.000000000000000000e+00 6.010370000000000122e-04 6.373509999999999766e-04 1.044939982500000042e+01
1.042533918400000026e+01 0.000000000000000000e+00 0.000000000000000000e+00 -6.959194000000000144e-03 1.042536530499999969e+01 0.000000000000000000e+00 6.171730000000000488e-04 6.544609999999999534e-04 1.072993367099999951e+01
1.031869520899999948e+01 0.000000000000000000e+00 0.000000000000000000e+00 -6.888006000000000337e-03 1.031872106299999992e+01 0.000000000000000000e+00 6.108599999999999620e-04 6.477670000000000476e-04 1.062017390499999969e+01
1.028353591399999978e+01 0.000000000000000000e+00 0.000000000000000000e+00 -6.864536000000000075e-03 1.028356167899999996e+01 0.000000000000000000e+00 6.087790000000000475e-04 6.455599999999999923e-04 1.058398736999999912e+01
1.037575673899999984e+01 0.000000000000000000e+00 0.000000000000000000e+00 -6.926095999999999642e-03 1.037578273599999967e+01 0.000000000000000000e+00 6.142380000000000236e-04 6.513489999999999601e-04 1.067890258799999970e+01
1.004346058199999980e+01 0.000000000000000000e+00 0.000000000000000000e+00 -6.704278999999999621e-03 1.004348574599999999e+01 0.000000000000000000e+00 5.945660000000000398e-04 6.304890000000000277e-04 1.033689781800000063e+01
1.037729155200000086e+01 0.000000000000000000e+00 0.000000000000000000e+00 -6.927120000000000152e-03 1.037731755199999917e+01 0.000000000000000000e+00 6.143290000000000469e-04 6.514449999999999538e-04 1.068048224200000007e+01
1.025803782500000061e+01 0.000000000000000000e+00 0.000000000000000000e+00 -6.847515000000000199e-03 1.025806352699999913e+01 0.000000000000000000e+00 6.072690000000000162e-04 6.439590000000000461e-04 1.055774431000000035e+01
1.045338511299999951e+01 0.000000000000000000e+00 0.000000000000000000e+00 -6.977915000000000333e-03 1.045341130399999940e+01 0.000000000000000000e+00 6.188339999999999640e-04 6.562220000000000336e-04 1.075879901000000061e+01
1.020075241500000018e+01 0.000000000000000000e+00 0.000000000000000000e+00 -6.809276000000000391e-03 1.020077797299999922e+01 0.000000000000000000e+00 6.038779999999999669e-04 6.403630000000000216e-04 1.049878520600000087e+01
1.010474197499999960e+01 0.000000000000000000e+00 0.000000000000000000e+00 -6.745186000000000237e-03 1.010476729300000009e+01 0.000000000000000000e+00 5.981940000000000261e-04 6.343359999999999927e-04 1.039996965399999951e+01
1.033516434699999920e+01 0.000000000000000000e+00 0.000000000000000000e+00 -6.898999000000000277e-03 1.033519024099999939e+01 0.000000000000000000e+00 6.118350000000000264e-04 6.488009999999999567e-04 1.063712421700000021e+01
1.017238304900000045e+01 0.000000000000000000e+00 0.000000000000000000e+00 -6.790339000000000270e-03 1.017240853600000072e+01 0.000000000000000000e+00 6.021979999999999694e-04 6.385819999999999518e-04 1.046958698000000076e+01
1.029082872999999942e+01 0.000000000000000000e+00 0.000000000000000000e+00 -6.869403999999999962e-03 1.029085451399999940e+01 0.000000000000000000e+00 6.092100000000000033e-04 6.460170000000000322e-04 1.059149325799999986e+01
1.023447878400000022e+01 0.000000000000000000e+00 0.000000000000000000e+00 -6.831788999999999570e-03 1.023450442699999918e+01 0.000000000000000000e+00 6.058739999999999525e-04 6.424799999999999608e-04 1.053349695100000005e+01
1.023013271199999963e+01 0.000000000000000000e+00 0.000000000000000000e+00 -6.828887999999999972e-03 1.023015834399999946e+01 0.000000000000000000e+00 6.056170000000000260e-04 6.422069999999999992e-04 1.052902390100000041e+01
1.021760407000000015e+01 0.000000000000000000e+00 0.000000000000000000e+00 -6.820525000000000025e-03 1.021762967000000089e+01 0.000000000000000000e+00 6.048759999999999597e-04 6.414209999999999834e-04 1.051612921199999917e+01
1.031022361399999987e+01 0.000000000000000000e+00 0.000000000000000000e+00 -6.882351000000000094e-03 1.031024944600000026e+01 0.000000000000000000e+00 6.103589999999999884e-04 6.472350000000000195e-04 1.061145479800000047e+01
1.025490275900000015e+01 0.000000000000000000e+00 0.000000000000000000e+00 -6.845422999999999786e-03 1.025492845299999978e+01 0.000000000000000000e+00 6.070840000000000307e-04 6.437619999999999801e-04 1.055451764700000084e+01
1.046699388100000050e+01 0.000000000000000000e+00 0.000000000000000000e+00 -6.986998999999999814e-03 1.046702010599999966e+01 0.000000000000000000e+00 6.196389999999999537e-04 6.570760000000000359e-04 1.077280538099999951e+01
1.023965141500000087e+01 0.000000000000000000e+00 0.000000000000000000e+00 -6.835242000000000054e-03 1.023967707000000082e+01 0.000000000000000000e+00 6.061810000000000158e-04 6.428049999999999823e-04 1.053882070899999945e+01
1.028558667399999926e+01 0.000000000000000000e+00 0.000000000000000000e+00 -6.865905000000000272e-03 1.028561244499999994e+01 0.000000000000000000e+00 6.089000000000000011e-04 6.456879999999999478e-04 1.058609804700000012e+01
1.049876126999999926e+01 0.000000000000000000e+00 0.000000000000000000e+00 -7.008204999999999990e-03 1.049878757399999962e+01 0.000000000000000000e+00 6.215199999999999718e-04 6.590710000000000058e-04 1.080550090999999924e+01
1.036159788199999987e+01 0.000000000000000000e+00 0.000000000000000000e+00 -6.916644999999999911e-03 1.036162384300000028e+01 0.000000000000000000e+00 6.133999999999999479e-04 6.504599999999999488e-04 1.066433005500000064e+01
1.028710791399999991e+01 0.000000000000000000e+00 0.000000000000000000e+00 -6.866920999999999789e-03 1.028713368800000083e+01 0.000000000000000000e+00 6.089900000000000087e-04 6.457840000000000498e-04 1.058766373199999933e+01
1.044522298799999938e+01 0.000000000000000000e+00 0.000000000000000000e+00 -6.972467000000000421e-03 1.044524915799999931e+01 0.000000000000000000e+00 6.183500000000000411e-04 6.557099999999999951e-04 1.075039841399999929e+01
1.024442546100000051e+01 0.000000000000000000e+00 0.000000000000000000e+00 -6.838429000000000035e-03 1.024445112899999977e+01 0.000000000000000000e+00 6.064630000000000108e-04 6.431040000000000281e-04 1.054373423700000068e+01
1.041475416099999940e+01 0.000000000000000000e+00 0.000000000000000000e+00 -6.952128000000000127e-03 1.041478025500000015e+01 0.000000000000000000e+00 6.165469999999999501e-04 6.537970000000000153e-04 1.071903938700000047e+01
1.003756344199999972e+01 0.000000000000000000e+00 0.000000000000000000e+00 -6.700343000000000097e-03 1.003758859100000045e+01 0.000000000000000000e+00 5.942169999999999657e-04 6.301180000000000409e-04 1.033082838300000006e+01
1.014392297700000078e+01 0.000000000000000000e+00 0.000000000000000000e+00 -6.771341000000000165e-03 1.014394839300000051e+01 0.000000000000000000e+00 6.005140000000000174e-04 6.367950000000000043e-04 1.044029539799999995e+01
1.034042101700000060e+01 0.000000000000000000e+00 0.000000000000000000e+00 -6.902507999999999908e-03 1.034044692500000018e+01 0.000000000000000000e+00 6.121460000000000443e-04 6.491309999999999485e-04 1.064253446999999930e+01
1.016120226199999976e+01 0.000000000000000000e+00 0.000000000000000000e+00 -6.782874999999999842e-03 1.016122772099999949e+01 0.000000000000000000e+00 6.015369999999999702e-04 6.378799999999999575e-04 1.045807952700000065e+01
1.050919499599999973e+01 0.000000000000000000e+00 0.000000000000000000e+00 -7.015170000000000260e-03 1.050922132700000056e+01 0.000000000000000000e+00 6.221370000000000372e-04 6.597260000000000190e-04 1.081623947599999980e+01
1.032121145600000034e+01 0.000000000000000000e+00 0.000000000000000000e+00 -6.889685999999999901e-03 1.032123731599999950e+01 0.000000000000000000e+00 6.110090000000000313e-04 6.479250000000000417e-04 1.062276366899999935e+01
1.004506764099999927e+01 0.000000000000000000e+00 0.000000000000000000e+00 -6.705352000000000361e-03 1.004509280899999979e+01 0.000000000000000000e+00 5.946610000000000177e-04 6.305889999999999759e-04 1.033855183000000011e+01
1.004661584199999957e+01 0.000000000000000000e+00 0.000000000000000000e+00 -6.706385999999999944e-03 1.004664101400000042e+01 0.000000000000000000e+00 5.947529999999999484e-04 6.306870000000000011e-04 1.034014526400000022e+01
1.004934617900000049e+01 0.000000000000000000e+00 0.000000000000000000e+00 -6.708208000000000226e-03 1.004937135700000006e+01 0.000000000000000000e+00 5.949150000000000054e-04 6.308579999999999830e-04 1.034295537200000048e+01
1.048690709199999915e+01 0.000000000000000000e+00 0.000000000000000000e+00 -7.000291999999999973e-03 1.048693336700000067e+01 0.000000000000000000e+00 6.208179999999999775e-04 6.583259999999999850e-04 1.079330039200000080e+01
1.046261517099999949e+01 0.000000000000000000e+00 0.000000000000000000e+00 -6.984075999999999652e-03 1.046264138499999952e+01 0.000000000000000000e+00 6.193799999999999957e-04 6.568010000000000428e-04 1.076829874000000054e+01
1.035486698000000061e+01 0.000000000000000000e+00 0.000000000000000000e+00 -6.912151000000000059e-03 1.035489292499999969e+01 0.000000000000000000e+00 6.130009999999999539e-04 6.500370000000000106e-04 1.065740249799999972e+01
1.022778872800000016e+01 0.000000000000000000e+00 0.000000000000000000e+00 -6.827322999999999725e-03 1.022781435399999950e+01 0.000000000000000000e+00 6.054780000000000058e-04 6.420599999999999615e-04 1.052661143299999935e+01
1.032397301700000014e+01 0.000000000000000000e+00 0.000000000000000000e+00 -6.891529000000000404e-03 1.032399888399999988e+01 0.000000000000000000e+00 6.111719999999999956e-04 6.480979999999999467e-04 1.062560591399999943e+01
1.045331690299999927e+01 0.000000000000000000e+00 0.000000000000000000e+00 -6.977869000000000259e-03 1.045334309399999917e+01 0.000000000000000000e+00 6.188300000000000094e-04 6.562179999999999706e-04 1.075872880700000067e+01
1.024992711099999987e+01 0.000000000000000000e+00 0.000000000000000000e+00 -6.842100999999999739e-03 1.024995279200000020e+01 0.000000000000000000e+00 6.067890000000000479e-04 6.434499999999999465e-04 1.054939662700000014e+01
1.026941609200000016e+01 0.000000000000000000e+00 0.000000000000000000e+00 -6.855110999999999670e-03 1.026944182199999922e+01 0.000000000000000000e+00 6.079430000000000034e-04 6.446730000000000125e-04 1.056945501300000068e+01
1.016391110200000014e+01 0.000000000000000000e+00 0.000000000000000000e+00 -6.784682999999999686e-03 1.016393656800000045e+01 0.000000000000000000e+00 6.016969999999999957e-04 6.380500000000000321e-04 1.046086750999999992e+01
1.016780115299999920e+01 0.000000000000000000e+00 0.000000000000000000e+00 -6.787279999999999702e-03 1.016782662800000026e+01 0.000000000000000000e+00 6.019270000000000393e-04 6.382939999999999708e-04 1.046487121500000050e+01
1.022950638000000012e+01 0.000000000000000000e+00 0.000000000000000000e+00 -6.828469999999999679e-03 1.022953200999999979e+01 0.000000000000000000e+00 6.055799999999999855e-04 6.421680000000000357e-04 1.052837926900000021e+01
1.042940202900000024e+01 0.000000000000000000e+00 0.000000000000000000e+00 -6.961906000000000344e-03 1.042942815900000042e+01 0.000000000000000000e+00 6.174140000000000487e-04 6.547159999999999569e-04 1.073411521799999946e+01
1.037003054000000013e+01 0.000000000000000000e+00 0.000000000000000000e+00 -6.922273999999999962e-03 1.037005652200000050e+01 0.000000000000000000e+00 6.138989999999999985e-04 6.509890000000000381e-04 1.067300908800000059e+01
1.033438207400000053e+01 0.000000000000000000e+00 0.000000000000000000e+00 -6.898477000000000081e-03 1.033440796700000064e+01 0.000000000000000000e+00 6.117889999999999526e-04 6.487520000000000526e-04 1.063631908900000056e+01
1.042978353500000033e+01 0.000000000000000000e+00 0.000000000000000000e+00 -6.962160000000000223e-03 1.042980966600000059e+01 0.000000000000000000e+00 6.174359999999999614e-04 6.547400000000000095e-04 1.073450786999999984e+01
1.036510663900000040e+01 0.000000000000000000e+00 0.000000000000000000e+00 -6.918986999999999707e-03 1.036513260799999969e+01 0.000000000000000000e+00 6.136079999999999703e-04 6.506800000000000517e-04 1.066794132599999934e+01
1.022816058699999964e+01 0.000000000000000000e+00 0.000000000000000000e+00 -6.827571999999999634e-03 1.022818621300000075e+01 0.000000000000000000e+00 6.055000000000000269e-04 6.420829999999999984e-04 1.052699415600000066e+01
1.036700648899999955e+01 0.000000000000000000e+00 0.000000000000000000e+00 -6.920255000000000156e-03 1.036703246299999925e+01 0.000000000000000000e+00 6.137199999999999990e-04 6.507999999999999896e-04 1.066989668299999927e+01
1.004247158199999923e+01 0.000000000000000000e+00 0.000000000000000000e+00 -6.703619000000000071e-03 1.004249674399999925e+01 0.000000000000000000e+00 5.945079999999999939e-04 6.304270000000000273e-04 1.033587992300000025e+01
1.052318007300000069e+01 0.000000000000000000e+00 0.000000000000000000e+00 -7.024505000000000332e-03 1.052320643900000086e+01 0.000000000000000000e+00 6.229649999999999554e-04 6.606029999999999498e-04 1.083063315200000076e+01
1.015195267500000043e+01 0.000000000000000000e+00 0.000000000000000000e+00 -6.776701000000000426e-03 1.015197811100000003e+01 0.000000000000000000e+00 6.009890000000000154e-04 6.372990000000000252e-04 1.044855969700000031e+01
1.040463650599999923e+01 0.000000000000000000e+00 0.000000000000000000e+00 -6.945373999999999819e-03 1.040466257399999961e+01 0.000000000000000000e+00 6.159479999999999513e-04 6.531619999999999917e-04 1.070862612700000049e+01
1.042860469100000032e+01 0.000000000000000000e+00 0.000000000000000000e+00 -6.961372999999999867e-03 1.042863082000000041e+01 0.000000000000000000e+00 6.173669999999999592e-04 6.546660000000000370e-04 1.073329458399999936e+01
1.004762915599999928e+01 0.000000000000000000e+00 0.000000000000000000e+00 -6.707061999999999746e-03 1.004765433000000030e+01 0.000000000000000000e+00 5.948130000000000257e-04 6.307500000000000173e-04 1.034118818399999995e+01
1.003963468399999925e+01 0.000000000000000000e+00 0.000000000000000000e+00 -6.701725000000000390e-03 1.003965983800000039e+01 0.000000000000000000e+00 5.943399999999999508e-04 6.302480000000000278e-04 1.033296014000000085e+01
1.024496779999999951e+01 0.000000000000000000e+00 0.000000000000000000e+00 -6.838791000000000314e-03 1.024499346800000055e+01 0.000000000000000000e+00 6.064949999999999725e-04 6.431380000000000213e-04 1.054429242099999975e+01
