1.036858266499999992e+01 0.000000000000000000e+00 0.000000000000000000e+00 -1.646906199999999959e-02 1.048746007999999996e+01 0.000000000000000000e+00 -1.780392218000000026e+00 2.461208000000000146e-02 1.059397749699999913e+01
1.046695543300000075e+01 0.000000000000000000e+00 0.000000000000000000e+00 -4.024833000000000230e-03 1.056942565499999986e+01 0.000000000000000000e+00 -1.827027116000000007e+00 1.934608700000000139e-02 1.067721184900000075e+01
1.045916673800000041e+01 0.000000000000000000e+00 0.000000000000000000e+00 -4.021837999999999802e-03 1.056156070900000010e+01 0.000000000000000000e+00 -1.825667584999999926e+00 1.933169200000000101e-02 1.066926669699999941e+01
1.055648086399999919e+01 0.000000000000000000e+00 0.000000000000000000e+00 -1.676751300000000125e-02 1.067751256100000035e+01 0.000000000000000000e+00 -1.812656269999999958e+00 2.505809700000000140e-02 1.078596027400000068e+01
1.035058959500000064e+01 0.000000000000000000e+00 0.000000000000000000e+00 -3.980087000000000208e-03 1.045192060900000008e+01 0.000000000000000000e+00 -1.806715236999999918e+00 1.913100800000000143e-02 1.055850849599999997e+01
1.042822897900000001e+01 0.000000000000000000e+00 0.000000000000000000e+00 -4.009941000000000373e-03 1.053032007300000039e+01 0.000000000000000000e+00 -1.820267340000000011e+00 1.927450899999999870e-02 1.063770747100000058e+01
1.042411585700000032e+01 0.000000000000000000e+00 0.000000000000000000e+00 -1.655726899999999946e-02 1.054362996899999949e+01 0.000000000000000000e+00 -1.789927838000000104e+00 2.474389999999999923e-02 1.065071788300000044e+01
1.046200902600000049e+01 0.000000000000000000e+00 0.000000000000000000e+00 -4.022931000000000423e-03 1.056443082300000036e+01 0.000000000000000000e+00 -1.826163712000000050e+00 1.933694500000000122e-02 1.067216608000000022e+01
1.040745555600000039e+01 0.000000000000000000e+00 0.000000000000000000e+00 -4.001952999999999934e-03 1.050934328099999959e+01 0.000000000000000000e+00 -1.816641299000000043e+00 1.923611399999999860e-02 1.061651675899999958e+01
1.041743217700000024e+01 0.000000000000000000e+00 0.000000000000000000e+00 -4.005790000000000392e-03 1.051941757200000005e+01 0.000000000000000000e+00 -1.818382737000000082e+00 1.925455400000000011e-02 1.062669378700000067e+01
1.044967353300000035e+01 0.000000000000000000e+00 0.000000000000000000e+00 -4.018187000000000321e-03 1.055197456700000025e+01 0.000000000000000000e+00 -1.824010528000000075e+00 1.931414500000000131e-02 1.065958279600000047e+01
1.031183505799999978e+01 0.000000000000000000e+00 0.000000000000000000e+00 -3.965185000000000411e-03 1.041278666999999913e+01 0.000000000000000000e+00 -1.799950557999999923e+00 1.905937799999999835e-02 1.051897547199999927e+01
1.047559662399999958e+01 0.000000000000000000e+00 0.000000000000000000e+00 -1.663903900000000130e-02 1.059570097099999941e+01 0.000000000000000000e+00 -1.798767615000000042e+00 2.486610100000000156e-02 1.070331775200000024e+01
1.053045091100000086e+01 0.000000000000000000e+00 0.000000000000000000e+00 -4.049249000000000424e-03 1.063354274499999974e+01 0.000000000000000000e+00 -1.838110373999999991e+00 1.946344599999999883e-02 1.074198280100000069e+01
1.041631779599999952e+01 0.000000000000000000e+00 0.000000000000000000e+00 -4.005360999999999817e-03 1.051829228100000080e+01 0.000000000000000000e+00 -1.818188219999999911e+00 1.925249399999999847e-02 1.062555702100000055e+01
1.044359574899999998e+01 0.000000000000000000e+00 0.000000000000000000e+00 -1.658820999999999907e-02 1.056333320100000073e+01 0.000000000000000000e+00 -1.793272734999999951e+00 2.479013999999999870e-02 1.067062123400000040e+01
1.046551586100000009e+01 0.000000000000000000e+00 0.000000000000000000e+00 -1.662302699999999855e-02 1.058550463000000086e+01 0.000000000000000000e+00 -1.797036644000000072e+00 2.484217199999999917e-02 1.069301785100000046e+01
1.042386716899999932e+01 0.000000000000000000e+00 0.000000000000000000e+00 -4.008264000000000098e-03 1.052591556199999978e+01 0.000000000000000000e+00 -1.819505976999999941e+00 1.926644699999999905e-02 1.063325804299999966e+01
1.048454083300000050e+01 0.000000000000000000e+00 0.000000000000000000e+00 -4.031594999999999797e-03 1.058718321399999951e+01 0.000000000000000000e+00 -1.830096681999999975e+00 1.937859100000000057e-02 1.069515049800000028e+01
1.048785477100000030e+01 0.000000000000000000e+00 0.000000000000000000e+00 -4.032868999999999690e-03 1.059052959399999949e+01 0.000000000000000000e+00 -1.830675135999999981e+00 1.938471599999999975e-02 1.069853100399999946e+01
1.031507225700000063e+01 0.000000000000000000e+00 0.000000000000000000e+00 -3.966428999999999615e-03 1.041605556000000021e+01 0.000000000000000000e+00 -1.800515617000000068e+00 1.906536199999999889e-02 1.052227769799999990e+01
1.046700903500000024e+01 0.000000000000000000e+00 0.000000000000000000e+00 -1.662539899999999904e-02 1.058701492399999999e+01 0.000000000000000000e+00 -1.797293036999999982e+00 2.484571600000000033e-02 1.069454348400000043e+01
1.052762665600000069e+01 0.000000000000000000e+00 0.000000000000000000e+00 -4.048162999999999588e-03 1.063069084199999992e+01 0.000000000000000000e+00 -1.837617395000000098e+00 1.945822599999999861e-02 1.073910181299999955e+01
1.051197884099999946e+01 0.000000000000000000e+00 0.000000000000000000e+00 -4.042145999999999934e-03 1.061488983699999977e+01 0.000000000000000000e+00 -1.834886038999999913e+00 1.942930400000000141e-02 1.072313967100000021e+01
1.049353749299999983e+01 0.000000000000000000e+00 0.000000000000000000e+00 -4.035053999999999724e-03 1.059626794999999966e+01 0.000000000000000000e+00 -1.831667066000000066e+00 1.939521899999999827e-02 1.070432787999999924e+01
1.042900942400000019e+01 0.000000000000000000e+00 0.000000000000000000e+00 -4.010241000000000326e-03 1.053110815900000041e+01 0.000000000000000000e+00 -1.820403567999999916e+00 1.927595199999999898e-02 1.063850359399999945e+01
1.065782152399999916e+01 0.000000000000000000e+00 0.000000000000000000e+00 -4.098225999999999952e-03 1.076216030099999976e+01 0.000000000000000000e+00 -1.860343158000000052e+00 1.969886499999999943e-02 1.087191198900000089e+01
1.037174933700000068e+01 0.000000000000000000e+00 0.000000000000000000e+00 -3.988222999999999942e-03 1.047328750199999980e+01 0.000000000000000000e+00 -1.810408709999999921e+00 1.917011799999999988e-02 1.058009328600000032e+01
1.036902719999999967e+01 0.000000000000000000e+00 0.000000000000000000e+00 -3.987176999999999735e-03 1.047053871600000008e+01 0.000000000000000000e+00 -1.809933556000000054e+00 1.916508700000000079e-02 1.057731646799999936e+01
1.042488088099999999e+01 0.000000000000000000e+00 0.000000000000000000e+00 -4.008654000000000384e-03 1.052693919800000089e+01 0.000000000000000000e+00 -1.819682923000000008e+00 1.926832100000000145e-02 1.063429211799999941e+01
1.041485797300000016e+01 0.000000000000000000e+00 0.000000000000000000e+00 -4.004800000000000200e-03 1.051681816600000019e+01 0.000000000000000000e+00 -1.817933405000000002e+00 1.924979599999999957e-02 1.062406787299999955e+01
1.044034170499999981e+01 0.000000000000000000e+00 0.000000000000000000e+00 -1.658304199999999923e-02 1.056004184899999920e+01 0.000000000000000000e+00 -1.792713983000000066e+00 2.478241499999999861e-02 1.066729645300000051e+01
1.044120968200000021e+01 0.000000000000000000e+00 0.000000000000000000e+00 -4.014933000000000043e-03 1.054342785599999921e+01 0.000000000000000000e+00 -1.822533146000000048e+00 1.929850199999999863e-02 1.065094892599999987e+01
1.045440471500000079e+01 0.000000000000000000e+00 0.000000000000000000e+00 -4.020006999999999921e-03 1.055675206699999968e+01 0.000000000000000000e+00 -1.824836364999999905e+00 1.932288999999999882e-02 1.066440901600000046e+01
1.039234556999999981e+01 0.000000000000000000e+00 0.000000000000000000e+00 -3.996142999999999744e-03 1.049408537000000052e+01 0.000000000000000000e+00 -1.814003822000000099e+00 1.920818599999999862e-02 1.060110324899999945e+01
1.044840346300000000e+01 0.000000000000000000e+00 0.000000000000000000e+00 -1.659584700000000038e-02 1.056819603599999979e+01 0.000000000000000000e+00 -1.794098269000000023e+00 2.480155200000000101e-02 1.067553345900000039e+01
1.035425853399999951e+01 0.000000000000000000e+00 0.000000000000000000e+00 -1.644630999999999871e-02 1.047297172000000032e+01 0.000000000000000000e+00 -1.777932617000000048e+00 2.457807799999999973e-02 1.057934198399999914e+01
1.043983150400000071e+01 0.000000000000000000e+00 0.000000000000000000e+00 -4.014402999999999722e-03 1.054203618600000070e+01 0.000000000000000000e+00 -1.822292583000000077e+00 1.929595400000000058e-02 1.064954306399999950e+01
1.050409887400000031e+01 0.000000000000000000e+00 0.000000000000000000e+00 -1.668431100000000028e-02 1.062453000300000028e+01 0.000000000000000000e+00 -1.803661744000000011e+00 2.493375700000000084e-02 1.073243959100000033e+01
1.044917879599999999e+01 0.000000000000000000e+00 0.000000000000000000e+00 -4.017996999999999715e-03 1.055147498700000064e+01 0.000000000000000000e+00 -1.823924169999999956e+00 1.931323100000000015e-02 1.065907812100000029e+01
1.040080941399999936e+01 0.000000000000000000e+00 0.000000000000000000e+00 -1.652025000000000021e-02 1.052005631399999963e+01 0.000000000000000000e+00 -1.785925881999999909e+00 2.468857699999999974e-02 1.062690479900000007e+01
1.038250526899999926e+01 0.000000000000000000e+00 0.000000000000000000e+00 -3.992359000000000012e-03 1.048414873399999969e+01 0.000000000000000000e+00 -1.812286178999999997e+00 1.918999799999999978e-02 1.059106528000000047e+01
1.028757317500000035e+01 0.000000000000000000e+00 0.000000000000000000e+00 -3.955855000000000309e-03 1.038828726600000074e+01 0.000000000000000000e+00 -1.795715600000000078e+00 1.901453499999999908e-02 1.049422622500000024e+01
1.043830271200000048e+01 0.000000000000000000e+00 0.000000000000000000e+00 -4.013814999999999571e-03 1.054049242700000022e+01 0.000000000000000000e+00 -1.822025728999999927e+00 1.929312899999999914e-02 1.064798356200000029e+01
1.045851684299999995e+01 0.000000000000000000e+00 0.000000000000000000e+00 -4.021588000000000419e-03 1.056090445200000083e+01 0.000000000000000000e+00 -1.825554144000000045e+00 1.933048999999999878e-02 1.066860374700000058e+01
1.042168671199999963e+01 0.000000000000000000e+00 0.000000000000000000e+00 -4.007425999999999697e-03 1.052371375799999953e+01 0.000000000000000000e+00 -1.819125373999999962e+00 1.926241700000000043e-02 1.063103378599999971e+01
1.049852768899999944e+01 0.000000000000000000e+00 0.000000000000000000e+00 -1.667546199999999854e-02 1.061889494300000081e+01 0.000000000000000000e+00 -1.802705114000000108e+00 2.492053199999999871e-02 1.072674729799999938e+01
1.029531305000000074e+01 0.000000000000000000e+00 0.000000000000000000e+00 -1.635268399999999928e-02 1.041335041800000027e+01 0.000000000000000000e+00 -1.767811071999999983e+00 2.443815800000000149e-02 1.051911512899999934e+01
1.046909643400000078e+01 0.000000000000000000e+00 0.000000000000000000e+00 -1.662871399999999930e-02 1.058912625500000004e+01 0.000000000000000000e+00 -1.797651464999999948e+00 2.485067100000000126e-02 1.069667625900000019e+01
1.058986820800000039e+01 0.000000000000000000e+00 0.000000000000000000e+00 -4.072095999999999875e-03 1.069354173099999983e+01 0.000000000000000000e+00 -1.848481776999999937e+00 1.957326699999999836e-02 1.080259365100000046e+01
