2.795716999999999786e+00 -1.051647999999999916e+00 -3.262180000000000080e-01 2.980550000000000033e+00 1.718218999999999941e+00 3.485539999999999750e-01 1.207133000000000012e+00 1.163237999999999994e+00 1.077053999999999956e+00 1.019655999999999896e+00 -4.095227999999999646e+00 -1.145540000000000030e-01 1.210330000000000017e-01 -1.584351000000000065e+00 -8.788169999999999593e-01 -9.647369999999999557e-01 9.035370000000000346e-01 -3.504591000000000012e+00 1.759393999999999902e+00 7.709080000000000377e-01 7.226479999999999571e-01 6.740119999999999445e-01 -7.686290000000000067e-01 -5.018960000000000088e-01 -8.939989999999999881e-01 8.805709999999999926e-01 4.113620000000000054e-01 2.679984000000000144e+00 -2.051119999999999888e-01 -2.183180000000000121e-01 2.631290000000000018e-01 3.492049999999999876e-01 2.904550000000000187e-01 2.750094999999999956e+00 -1.156339999999999923e+00 -1.253058999999999923e+00 3.064239999999999742e-01 1.915445999999999982e+00 -3.824905000000000221e+00 -1.257252999999999954e+00 -8.600179999999999492e-01 3.258699000000000012e+00 -9.968160000000000354e-01 -2.310099999999999931e-01 1.926760999999999946e+00 -9.678630000000000289e-01 -3.047328999999999954e+00 2.176938999999999957e+00 9.260810000000000430e-01 -2.825489999999999946e-01 8.334759999999999946e-01 2.599280999999999953e+00 1.121064000000000060e+00 -2.718758999999999926e+00 -2.028283000000000058e+00 6.391350000000000087e-01 -6.654100000000000292e-02 2.609230999999999856e+00 2.089489999999999958e-01 1.017891000000000101e+00 -2.223307000000000144e+00 -1.011395999999999962e+00 1.028272999999999993e+00 -6.364499999999999325e-02 1.469632999999999967e+00 -1.623070999999999930e+00 -2.522496999999999989e+00 1.847636000000000056e+00 -2.776879999999999904e-01 5.288439999999999808e-01 -2.465797999999999934e+00 3.409933000000000103e+00 2.634543999999999997e+00 -2.912128000000000050e+00 1.037922999999999929e+00 -3.965620000000000256e-01 -1.921613999999999933e+00 1.358009999999999939e+00 2.022542000000000062e+00 8.289530000000000509e-01 2.784726000000000035e+00 -7.340849999999999875e-01 -8.068030000000000479e-01 -1.412408000000000108e+00 -2.088852999999999849e+00 -5.739779999999999882e-01 8.545239999999999503e-01 -1.431148000000000087e+00 -1.913942999999999950e+00 -6.448500000000000343e-01 1.438350000000000017e+00 -1.630927999999999933e+00 2.683073999999999959e+00 3.257381000000000082e+00 1.304999999999999938e+00 4.505609999999999893e-01 -2.705671999999999855e+00 2.981320000000000192e+00 2.217678999999999956e+00 -8.046609999999999596e-01 -5.559100000000000152e-02 -2.079750999999999905e+00 1.600975999999999955e+00 2.181049999999999933e-01 -1.722240999999999911e+00 -4.368119999999999781e-01 6.754029999999999756e-01 1.923529999999999962e-01 5.387640000000000207e-01 -6.875529999999999697e-01 -1.152355000000000018e+00 9.039999999999999425e-02 6.271400000000000308e-01 5.712549999999999573e-01 -2.157201999999999842e+00 1.056688000000000072e+00 3.509323000000000192e+00 2.229240000000000110e-01 4.605560000000000209e-01 -1.071709000000000023e+00 5.301679999999999726e-01 -7.336909999999999821e-01 1.286527999999999894e+00 -3.072226999999999819e+00 -3.877510000000000123e-01 -2.827419999999999933e-01 8.360800000000000454e-01 -8.731750000000000345e-01 3.836622000000000199e+00 -1.227500999999999953e+00 2.615060000000000162e-01 -4.856960000000000166e-01 -3.085466999999999960e+00 -1.212760999999999978e+00 -1.667299999999999893e-01 1.907845000000000013e+00 -2.037399999999999975e-02 2.050847999999999782e+00 -9.261589999999999545e-01 6.279200000000000059e-02 6.627990000000000270e-01 -3.971182000000000212e+00 1.435154999999999959e+00 -6.581970000000000320e-01 -3.259259999999999935e-01 -6.210989999999999567e-01 -7.774720000000000519e-01 -1.281595000000000040e+00 6.359359999999999458e-01 -1.857612999999999959e+00 -2.502174999999999816e+00 6.614499999999999824e-01 -7.926490000000000480e-01 -2.762240999999999946e+00 2.566740999999999939e+00 -6.700880000000000170e-01 -2.710571999999999981e+00 2.392687000000000008e+00 -2.759679999999999911e-01 -5.378610000000000335e-01 -1.264269000000000087e+00 -1.361649000000000109e+00 -6.382539999999999880e-01 -1.641380000000000061e+00 1.184177000000000035e+00 -5.555189999999999850e-01 3.544660000000000033e-01 1.210263000000000089e+00 1.495750000000000135e-01 -7.442539999999999711e-01 1.927465999999999902e+00 -2.331668000000000074e+00 7.172119999999999607e-01 -2.098326000000000136e+00 1.392158000000000007e+00 2.038019999999999943e+00 -1.354357000000000033e+00 -1.164212999999999942e+00 -1.078605000000000036e+00 1.684950000000000059e-01 2.866989999999999816e-01 -5.821790000000000020e-01 1.589319999999999899e-01 -1.124897000000000036e+00 -4.395669999999999855e-01 -6.566180000000000350e-01 -6.229040000000000132e-01 -1.487760999999999889e+00 -1.884125999999999967e+00 -1.723129999999999939e-01 5.386499999999999622e-01 -7.497000000000000330e-01 -2.265919999999999879e-01 -4.423739999999999895e-01 -7.291429999999999856e-01 -1.821484000000000103e+00 -3.532930000000000237e-01 -9.352770000000000250e-01 5.734059999999999713e-01 -1.330924999999999914e+00 9.026760000000000339e-01 2.095673000000000119e+00 7.300980000000000247e-01 -2.124067999999999845e+00 -5.925300000000000011e-02 -1.050190000000000012e-01 -1.157758999999999983e+00 2.343030000000000168e+00 6.503830000000000444e-01 -2.382207999999999881e+00 -7.189800000000000357e-02 2.810226999999999808e+00 -4.476809999999999956e-01 -1.520019999999999982e-01 2.839490000000000069e-01 2.502257000000000176e+00 -1.392616000000000076e+00 -1.534731999999999985e+00 -1.488841999999999999e+00 2.431979999999999975e-01 -5.055790000000000006e-01 -3.576989999999999892e-01 7.895569999999999533e-01 -1.479951000000000016e+00 -5.388899999999999940e-02 7.953489999999999727e-01 1.722558000000000034e+00 -8.036370000000000458e-01 -1.196592000000000100e+00 -7.754820000000000046e-01 2.979490000000000194e-01 2.162621999999999822e+00 2.935280000000000111e-01 7.200539999999999718e-01 3.588293000000000177e+00 1.594946999999999893e+00 7.456190000000000317e-01 -6.300149999999999917e-01 9.292049999999999477e-01 4.790329999999999866e-01 -5.268639999999999990e-01 -8.930690000000000017e-01 9.426309999999999967e-01 -1.861064000000000052e+00 3.492138999999999882e+00 -2.468186000000000213e+00 9.843140000000000223e-01 6.326119999999999521e-01 -1.130203000000000069e+00 1.488680000000000003e-01 -7.427409999999999846e-01 9.010259999999999936e-01 7.732449999999999601e-01 2.428571999999999953e+00 -1.418339000000000016e+00 5.734650000000000025e-01 3.731519999999999837e-01 5.531310000000000393e-01 -1.186970000000000081e+00 -7.344530000000000225e-01 -1.890384999999999982e+00 -5.339939999999999687e-01 -1.557939999999999880e-01 2.243405000000000094e+00 6.090459999999999763e-01 -2.091099999999999959e+00 -6.834069999999999867e-01 6.035239999999999494e-01 7.356650000000000134e-01 -9.445289999999999520e-01 6.176399999999999668e-01 -1.463399999999999944e-02 -6.358559999999999768e-01 2.900434000000000179e+00 -2.858660000000000090e-01 1.760220000000000118e-01 9.976350000000000495e-01 2.278532999999999920e+00 2.057479999999999976e+00 4.171429999999999860e-01 -1.967068999999999956e+00 -5.411300000000000138e-02
-1.021647999999999890e+00 -2.430940000000000101e+00 -3.682309999999999750e-01 -8.535070000000000157e-01 -1.895040999999999976e+00 1.762456999999999940e+00 -1.841104000000000074e+00 -2.266612999999999989e+00 -2.549294000000000171e+00 -2.060580999999999996e+00 -3.261641000000000012e+00 7.788159999999999528e-01 -8.014890000000000070e-01 3.187123999999999846e+00 3.518089999999999939e+00 1.881319999999999937e-01 4.153921999999999670e+00 1.547984999999999944e+00 -1.270253000000000076e+00 -1.499595999999999929e+00 1.660042999999999935e+00 1.687464000000000075e+00 1.338467999999999991e+00 -5.661730000000000373e-01 1.669518999999999975e+00 1.122354000000000074e+00 1.282135999999999942e+00 -1.362649999999999917e+00 1.423529999999999962e+00 -2.738510000000000111e-01 7.630280000000000395e-01 1.557850000000000068e-01 4.335550000000000237e-01 2.140687999999999924e+00 -3.275611000000000050e+00 -2.430981000000000058e+00 -2.150227999999999806e+00 -3.024040000000000061e-01 3.871100000000000235e-02 -1.077088000000000045e+00 9.353320000000000523e-01 -3.920759999999999801e-01 3.166055000000000064e+00 -3.245910000000000184e-01 -1.467257999999999951e+00 3.529980999999999813e+00 4.080369999999999830e-01 -2.190627999999999798e+00 -1.294194999999999984e+00 -3.205720000000000236e-01 -9.634489999999999998e-01 2.576995999999999842e+00 1.645548000000000011e+00 1.639053000000000093e+00 -2.857654999999999834e+00 -2.600206000000000017e+00 -1.123973000000000111e+00 3.656239999999999934e+00 9.646209999999999507e-01 -8.263279999999999514e-01 -2.077585000000000015e+00 1.434930000000000094e-01 -1.804589999999999916e+00 -2.122311999999999976e+00 8.860909999999999620e-01 -1.376028999999999947e+00 -2.123220000000000107e-01 -2.429565999999999892e+00 1.000124999999999931e+00 2.460282999999999998e+00 1.793009999999999882e-01 3.052329999999999766e-01 4.639300000000000090e-01 6.528749999999999831e-01 1.310129999999999906e-01 3.185560000000000058e-01 1.420457999999999998e+00 4.331920000000000215e-01 8.104890000000000150e-01 -2.505249999999999977e-01 -1.015732000000000079e+00 1.010310999999999959e+00 4.293131999999999948e+00 -2.883589999999999764e-01 -7.800259999999999971e-01 -1.215915000000000079e+00 -1.708704999999999918e+00 1.749854999999999938e+00 -9.990160000000000151e-01 -1.338176999999999950e+00 6.190997999999999557e+00 -3.440890000000000004e+00 1.444074999999999998e+00 -1.247976999999999892e+00 -1.877725000000000088e+00 -1.001298000000000021e+00 1.597938999999999998e+00 4.373619999999999730e-01 -5.586094000000000115e+00 3.463582999999999856e+00 -2.102732000000000046e+00 1.112514999999999921e+00 -1.853763999999999967e+00 -5.002950000000000452e-01 2.546280000000000210e-01 1.201035000000000075e+00 -3.062509999999999954e-01 1.023851000000000067e+00 4.200610000000000177e-01 7.113629999999999676e-01 2.159104000000000134e+00 -1.334707000000000088e+00 -8.337949999999999529e-01 -1.210309000000000079e+00 2.597013000000000016e+00 1.521363999999999939e+00 8.251849999999999463e-01 -2.107890000000000041e-01 1.711567999999999978e+00 4.161779999999999924e-01 1.962689999999999990e-01 7.167500000000000260e-02 -1.541770000000000085e-01 -1.528442999999999996e+00 -1.156497000000000108e+00 1.096594999999999986e+00 1.066305999999999976e+00 -4.386869999999999936e-01 1.752532999999999896e+00 -3.411390000000000255e-01 2.600344000000000211e+00 -1.982990000000000030e-01 1.900042999999999926e+00 -4.623729999999999785e-01 -1.263029999999999986e-01 1.113464999999999927e+00 -9.261880000000000113e-01 2.746412999999999993e+00 -1.454053999999999958e+00 -6.297500000000000320e-02 -9.619929999999999870e-01 -3.046806000000000125e+00 -2.748457000000000150e+00 -1.295617999999999936e+00 -1.329833000000000043e+00 -3.640550000000000175e-01 -6.318019999999999747e-01 -4.197509999999999852e-01 4.228390000000000204e-01 1.394430000000000058e+00 1.918223000000000011e+00 6.094000000000000111e-02 -7.032850000000000490e-01 5.308380000000000321e-01 1.155019000000000018e+00 1.166975000000000096e+00 1.841148000000000007e+00 -7.529179999999999762e-01 1.194960000000000050e-01 -2.530018000000000100e+00 2.666094999999999882e+00 -1.134649999999999936e+00 -1.964712000000000014e+00 1.381580999999999948e+00 1.305009000000000086e+00 -2.124086000000000141e+00 6.647640000000000216e-01 -2.226839999999999931e-01 6.875390000000000112e-01 4.127239999999999798e-01 1.060740000000000016e+00 -3.408011000000000124e+00 -1.114540000000000086e+00 1.032264000000000070e+00 4.186291999999999902e+00 3.218316000000000177e+00 -1.781250999999999918e+00 -8.541729999999999601e-01 -1.170006000000000101e+00 3.705640000000000045e-01 -2.085506000000000082e+00 -1.306945999999999941e+00 -1.337510000000000088e-01 -1.119982000000000033e+00 -1.672506999999999966e+00 8.221000000000000529e-01 6.451050000000000395e-01 2.252768999999999799e+00 -1.033506999999999953e+00 1.509643000000000068e+00 1.855545999999999918e+00 -2.893092000000000219e+00 -4.904580000000000051e-01 -2.061303000000000107e+00 -6.536809999999999565e-01 -2.093009999999999871e-01 -1.004763000000000073e+00 -7.681270000000000042e-01 -1.471599000000000101e+00 3.354909999999999837e-01 1.539215999999999918e+00 -1.575722999999999985e+00 -6.449099999999999833e-01 2.757950999999999819e+00 8.973839999999999595e-01 1.049927000000000055e+00 -7.176759999999999806e-01 -4.369629999999999903e-01 4.084499999999999936e-02 -1.595447000000000060e+00 5.587619999999999809e-01 -1.402487999999999957e+00 -4.803140000000000187e-01 8.669660000000000144e-01 1.419159999999999977e+00 -6.090999999999999887e-02 6.488930000000000531e-01 -3.128589999999999982e-01 -1.474722000000000088e+00 2.239289999999999892e-01 -5.160780000000000367e-01 9.306820000000000093e-01 -7.291509999999999936e-01 -1.050640000000000046e-01 -7.253849999999999465e-01 2.492649999999999866e-01 4.743689999999999851e-01 -1.933950999999999976e+00 -3.394892000000000021e+00 1.923524999999999929e+00 1.683494999999999964e+00 1.478666000000000036e+00 1.037271999999999972e+00 1.244507000000000030e+00 3.462509999999999755e-01 4.073550000000000226e-01 1.561319999999999930e-01 1.361695000000000100e+00 9.033210000000000406e-01 5.444170000000000398e-01 -2.653344000000000147e+00 -6.261100000000000554e-01 1.247727000000000031e+00 -1.812000000000000069e-02 1.969065999999999983e+00 5.169580000000000286e-01 -5.097969999999999446e-01 1.225162000000000084e+00 -2.041149999999999909e-01 -3.653460000000000041e-01 -1.949443000000000037e+00 -8.322990000000000110e-01 1.771589000000000080e+00 9.153310000000000057e-01 3.574679999999999858e+00 -1.185313000000000061e+00 7.631630000000000358e-01 -3.600949999999999984e-01 6.319800000000000417e-02 -1.006836000000000064e+00 -1.026902999999999899e+00 7.620630000000000459e-01 5.859069999999999556e-01 4.375199999999999922e-02 -8.423389999999999489e-01 1.321415999999999924e+00 1.734432999999999891e+00 -3.004582999999999782e+00 -9.279960000000000431e-01 -2.765732999999999997e+00 -9.435210000000000541e-01 -9.497290000000000454e-01 1.328591000000000077e+00 5.394229999999999858e-01 -1.762922000000000100e+00 6.018210000000000504e-01 1.101531999999999956e+00 -1.242431000000000063e+00 -2.015300000000000077e-02 -1.659801000000000082e+00 3.973610000000000197e-01 8.340349999999999708e-01
-5.076249999999999929e-01 -2.270709999999999951e-01 -1.523128000000000037e+00 5.272199999999999803e-02 -2.218998000000000026e+00 5.426940000000000097e-01 -2.861616000000000160e+00 -1.623140000000000027e+00 -5.371597000000000399e+00 -3.643371999999999833e+00 2.405590000000000117e+00 6.066300000000000026e-01 -8.812219999999999498e-01 -1.531746999999999970e+00 2.885289999999999799e-01 4.496164000000000271e+00 -3.990765000000000118e+00 1.151412000000000102e+00 1.778995000000000104e+00 -2.335339999999999916e-01 2.846144999999999925e+00 -9.456090000000000328e-01 -2.460418000000000216e+00 5.790274000000000143e+00 1.058619999999999978e-01 -5.793380000000000196e-01 2.754192999999999891e+00 -4.807109999999999994e-01 2.230870000000000075e-01 2.435435000000000016e+00 -6.298770000000000202e-01 6.610730000000000217e-01 -2.731830000000000092e-01 -1.469972999999999974e+00 1.400357999999999992e+00 2.122577999999999854e+00 3.795068999999999804e+00 1.132521000000000111e+00 2.028800000000000048e-01 2.343712000000000018e+00 1.404898999999999898e+00 1.764850000000000030e+00 4.204447000000000045e+00 1.057773000000000074e+00 -2.470994000000000135e+00 8.989589999999999526e-01 6.379909999999999748e-01 1.850017000000000023e+00 -1.865477999999999970e+00 -2.402029999999999998e-01 -3.543058999999999958e+00 -1.917230999999999908e+00 -4.276130000000000209e+00 -1.617061999999999999e+00 2.863074000000000119e+00 2.958975000000000133e+00 -3.109375000000000000e+00 3.149319999999999897e-01 1.268416999999999906e+00 -6.609829999999999872e-01 -3.765890999999999877e+00 -3.664683000000000135e+00 -7.277919999999999945e-01 -1.404200000000000066e-02 -1.883305000000000007e+00 -2.864231999999999889e+00 2.379699999999999871e-01 1.612260000000000026e+00 7.604020000000000223e-01 3.662039000000000044e+00 2.612960000000000171e+00 1.036583000000000032e+00 -1.889777000000000040e+00 -1.017173000000000105e+00 3.662050000000000027e-01 -5.786959999999999882e-01 8.717799999999999994e-01 -1.004170000000000007e+00 -4.503900000000000126e-01 1.598138999999999976e+00 1.094607000000000108e+00 -2.306633999999999851e+00 9.784070000000000267e-01 -1.225462000000000051e+00 -7.011800000000000255e-01 -1.048071999999999893e+00 -2.137033000000000182e+00 1.309647999999999923e+00 1.837334000000000023e+00 -3.431489999999999818e-01 -2.063534000000000201e+00 6.612729999999999997e-01 -1.447180000000000133e-01 1.017057000000000100e+00 1.262162999999999924e+00 -1.513403000000000054e+00 -1.323314000000000101e+00 1.130519000000000052e+00 1.770413000000000014e+00 3.048642000000000074e+00 -5.304170000000000273e-01 -5.381080000000000307e-01 -3.465787999999999869e+00 2.616569000000000145e+00 1.701184000000000029e+00 1.561599999999999933e-01 -1.120621000000000089e+00 -3.455960999999999839e+00 2.986899999999999972e-02 -9.603920000000000234e-01 -2.829019999999999868e-01 -5.603411000000000364e+00 4.106933999999999862e+00 -1.242960000000000037e-01 -1.370687999999999906e+00 -2.797609999999999819e-01 1.311843000000000092e+00 -5.858999999999999764e-01 1.335707999999999895e+00 -1.584422999999999915e+00 2.681985000000000063e+00 -1.132422999999999957e+00 3.908303999999999778e+00 -3.078830000000000178e-01 1.667742999999999975e+00 -9.275529999999999609e-01 -3.520183999999999980e+00 -2.743517000000000206e+00 2.131510000000000016e+00 1.243808000000000025e+00 2.364999999999999880e-01 -7.622259999999999591e-01 3.221608999999999945e+00 2.221283000000000118e+00 1.531131999999999938e+00 -3.365330000000000266e-01 1.062456000000000067e+00 1.608732000000000051e+00 -1.784779999999999978e-01 1.345132999999999912e+00 -2.060395000000000199e+00 -6.335739999999999705e-01 7.649430000000000396e-01 -1.141755000000000075e+00 2.484960000000000058e+00 -1.410161999999999916e+00 1.233059999999999989e-01 4.799729999999999830e-01 4.913159999999999750e-01 1.496079999999999910e-01 9.445090000000000430e-01 -2.210262999999999867e+00 4.220369999999999955e-01 -2.241229999999999889e-01 5.132499999999999840e-01 -6.514649999999999608e-01 5.195990000000000331e-01 7.095780000000000420e-01 -1.593039000000000094e+00 3.029560000000000031e-01 -2.375869999999999926e-01 -8.129220000000000335e-01 -3.304132000000000069e+00 -2.283421000000000145e+00 -1.135089999999999988e-01 2.011912000000000145e+00 -2.056281999999999943e+00 -2.209817000000000142e+00 -9.627860000000000307e-01 1.127585999999999977e+00 8.181690000000000351e-01 4.685462000000000238e+00 3.293416999999999817e+00 -2.593790000000000262e-01 5.613609999999999989e-01 1.837539000000000033e+00 7.090030000000000499e-01 1.882919999999999872e-01 1.307930999999999955e+00 -1.499336999999999920e+00 7.730146999999999657e+00 4.750179000000000151e+00 2.402238999999999791e+00 -1.081541000000000086e+00 -1.664589999999999959e-01 -2.859479999999999800e-01 -6.765149999999999775e-01 -6.455309999999999659e-01 -1.853760000000000130e-01 -1.454552999999999985e+00 -1.431364000000000081e+00 1.601007000000000069e+00 -2.126558999999999866e+00 1.865759999999999919e-01 -1.554902999999999924e+00 3.001590000000000091e-01 1.489225000000000021e+00 4.119349999999999956e-01 3.352710000000000079e+00 -3.340981000000000201e+00 1.384236000000000022e+00 8.897479999999999833e-01 -8.581830000000000291e-01 -1.933531000000000111e+00 -1.133542999999999967e+00 7.502529999999999477e-01 -1.290769000000000055e+00 -1.398883000000000099e+00 -5.399080000000000545e-01 -2.574911000000000172e+00 -6.899399999999999977e-01 1.229066999999999910e+00 -5.663699999999999984e-02 -2.021253999999999884e+00 -4.244490000000000207e-01 -2.392053999999999903e+00 -8.313939999999999664e-01 1.231157000000000057e+00 -5.136979999999999880e-01 -3.263507000000000158e+00 7.313730000000000508e-01 -5.055220000000000269e-01 4.883950000000000236e-01 5.220000000000000334e-02 -1.842273000000000049e+00 -4.018740000000000090e-01 -1.458897000000000110e+00 -1.463634000000000102e+00 1.304056000000000104e+00 3.821054999999999868e+00 1.897917999999999994e+00 -3.035169999999999813e-01 -1.226728000000000041e+00 8.729099999999999360e-02 -1.959394000000000080e+00 1.922411000000000092e+00 1.235338000000000047e+00 2.761947999999999848e+00 -1.589629999999999932e-01 2.429819999999999869e+00 -2.262770000000000059e-01 8.989920000000000133e-01 2.644467000000000123e+00 2.956056999999999935e+00 -7.001610000000000333e-01 -7.619949999999999779e-01 -1.749860000000000027e-01 -4.535499999999999865e+00 1.570983999999999936e+00 -3.134634999999999838e+00 -8.646230000000000304e-01 -1.489633999999999903e+00 1.789984999999999937e+00 -1.709819999999999895e+00 3.374795000000000211e+00 -7.756669999999999954e-01 -1.570162999999999975e+00 -1.567638000000000087e+00 -1.490401000000000087e+00 -7.991840000000000055e-01 4.107270000000000088e-01 2.424894999999999801e+00 -7.839300000000000435e-02 -2.009867999999999988e+00 6.374100000000000599e-02 -1.709897999999999918e+00 3.236380000000000035e+00 1.517643999999999993e+00 8.287750000000000394e-01 -5.112889999999999935e-01 -4.918368000000000073e+00 -2.009310999999999847e+00 2.262405999999999917e+00 1.260696000000000039e+00 -5.751519999999999966e-01 -1.192258999999999958e+00 1.369296999999999986e+00 -1.422114000000000100e+00 9.210829999999999851e-01 -9.987610000000000099e-01 -2.059466000000000019e+00 1.009068999999999994e+00
-3.861450000000000160e-01 2.569999000000000144e+00 -9.470009999999999817e-01 2.670945999999999820e+00 2.333479000000000081e+00 2.847484000000000126e+00 -2.622559999999999891e-01 -1.127961999999999909e+00 -3.415852000000000110e+00 -6.612829999999999542e-01 6.514480000000000270e-01 3.103787000000000074e+00 -2.499458000000000180e+00 4.518834000000000017e+00 1.368716000000000044e+00 1.690952000000000011e+00 1.495565000000000033e+00 -4.263109999999999955e-01 -1.982150000000000023e-01 2.086097000000000090e+00 -8.835349999999999593e-01 -2.429510000000000003e-01 3.391827999999999843e+00 -1.775168000000000079e+00 1.301428000000000029e+00 -8.350279999999999925e-01 -4.087430000000000230e-01 -1.907409999999999939e-01 -5.623259999999999925e-01 -4.560359999999999969e-01 -5.303330000000000544e-01 1.599938000000000082e+00 -5.972589999999999844e-01 -1.299997000000000069e+00 2.357160000000000089e-01 8.678900000000000503e-01 1.476342999999999961e+00 -1.445950000000000069e+00 -5.764169999999999572e-01 7.206869999999999665e-01 -1.714800000000000102e+00 2.473259000000000096e+00 -5.733110000000000150e-01 -8.612880000000000535e-01 -2.819320000000000159e-01 7.046080000000000121e-01 -8.566799999999999415e-02 1.255822999999999912e+00 2.955912000000000095e+00 1.252374000000000098e+00 -1.017987999999999893e+00 -1.549240000000000061e-01 -1.034150000000000069e-01 -1.332200999999999969e+00 1.264548000000000005e+00 1.626838999999999924e+00 5.837590000000000279e-01 -1.798540000000000028e+00 1.866130999999999984e+00 2.204454999999999831e+00 -1.833093000000000083e+00 2.601306999999999814e+00 1.662250999999999923e+00 1.265775000000000095e+00 1.299995000000000012e+00 -2.699900000000000078e-01 5.219882000000000133e+00 -4.063164999999999694e+00 5.029900000000000343e-02 2.916929000000000105e+00 -4.141149999999999665e+00 -3.713999999999999940e-02 1.014299999999999979e+00 -1.262293000000000109e+00 1.523938000000000015e+00 -1.607976000000000072e+00 -8.407390000000000141e-01 -3.235450000000000270e-01 -3.378329999999999944e-01 -2.245328999999999908e+00 8.808249999999999691e-01 -1.871105999999999936e+00 2.702840000000000242e-01 1.267975000000000074e+00 -1.427772999999999959e+00 -8.960810000000000164e-01 2.258163000000000142e+00 -8.355540000000000189e-01 -1.445648000000000044e+00 -2.777556000000000136e+00 -1.670649000000000051e+00 -8.657750000000000057e+00 -8.646700000000000219e-02 1.305531999999999915e+00 -1.498186999999999935e+00 5.928980000000000361e-01 -2.056113999999999997e+00 -1.521935999999999956e+00 -9.706160000000000343e-01 2.974841000000000069e+00 6.145340000000000247e-01 9.043000000000000690e-03 -4.113450000000000162e-01 -1.002019999999999994e-01 -2.653400000000000203e-01 -8.834279999999999911e-01 8.194850000000000190e-01 -1.333547999999999956e+00 -1.196139999999999981e-01 -9.202249999999999597e-01 4.299999999999999656e-02 -1.202217000000000091e+00 -7.204500000000000348e-01 -5.844709999999999628e-01 7.565560000000000063e-01 -1.042330000000000062e-01 3.130011000000000099e+00 -1.987884999999999902e+00 -3.077449999999999908e-01 -2.885778999999999872e+00 -2.969847999999999821e+00 1.341517999999999988e+00 -6.121339999999999559e-01 -1.756804999999999950e+00 -1.639354999999999896e+00 -9.308579999999999632e-01 3.970759999999999845e-01 1.729539999999999966e-01 2.567985999999999880e+00 2.631700000000000012e-02 1.561120000000000008e-01 -3.088874999999999815e+00 7.978150000000000519e-01 1.977127999999999997e+00 -1.889302000000000037e+00 -2.440579999999999972e-01 -1.267241999999999980e+00 1.769207999999999892e+00 1.261730999999999936e+00 -2.123521000000000214e+00 4.343179999999999819e-01 -3.336863000000000135e+00 9.193219999999999725e-01 -1.338198999999999916e+00 2.204161000000000037e+00 -1.348079000000000027e+00 -7.415819999999999634e-01 -9.825779999999999514e-01 9.879099999999999548e-01 1.679985999999999979e+00 1.694986000000000104e+00 -3.992852000000000068e+00 -5.925829999999999709e-01 -2.109293000000000085e+00 8.155300000000000049e-02 -2.517488000000000170e+00 -3.689220000000000277e-01 6.152999999999999581e-01 1.024331000000000103e+00 4.418219999999999925e-01 -1.088457999999999926e+00 -2.111711000000000116e+00 -2.994725999999999999e+00 5.540100000000000025e-01 -1.862590000000000079e-01 -3.766530000000000156e-01 -3.125260000000000260e-01 -6.766429999999999945e-01 1.604629999999999945e-01 -7.262579999999999592e-01 1.582748000000000044e+00 -6.766699999999999937e-01 -9.407389999999999919e-01 -1.803778000000000103e+00 -7.727020000000000000e-01 -7.329639999999999489e-01 -1.062354999999999938e+00 -8.191009999999999680e-01 -2.153059999999999974e-01 -8.222140000000000004e-01 -1.406193000000000026e+00 -9.892950000000000355e-01 -2.200679000000000052e+00 -7.250600000000000378e-01 -8.979700000000000182e-02 -8.990529999999999911e-01 -1.210927000000000087e+00 -2.967779999999999863e-01 -4.231230000000000269e-01 3.234944000000000042e+00 3.520773000000000152e+00 -3.208855999999999931e+00 -4.770480000000000276e-01 5.282470000000000221e-01 -8.167950000000000488e-01 2.440110000000000057e-01 9.499250000000000194e-01 8.295660000000000256e-01 1.648352000000000039e+00 -3.658135000000000137e+00 1.183000999999999969e+00 1.175740000000000007e+00 -1.508212000000000108e+00 -2.630973000000000006e+00 6.110830000000000428e-01 2.524805999999999884e+00 -1.837228000000000083e+00 9.713260000000000227e-01 -1.589706999999999981e+00 -1.612719000000000014e+00 2.509812999999999850e+00 -2.429530000000000189e+00 6.493160000000000043e-01 4.872009999999999952e-01 -2.354512000000000160e+00 -4.174699999999999939e-02 1.507829000000000086e+00 7.927509999999999835e-01 1.589765000000000095e+00 -5.144000000000000135e-03 -1.135324999999999918e+00 1.099272999999999945e+00 1.729602000000000084e+00 2.146167999999999854e+00 1.180579999999999963e-01 -2.222061000000000064e+00 3.249848000000000070e+00 2.227190999999999921e+00 -2.410092000000000123e+00 4.277995999999999910e+00 3.096877000000000102e+00 -6.023999999999999841e-03 -4.038939999999999753e-01 1.689462000000000019e+00 -7.806589999999999918e-01 -1.576154000000000055e+00 9.011949999999999683e-01 -1.213646000000000003e+00 -6.811329999999999885e-01 2.222662999999999833e+00 -1.097298000000000107e+00 8.070770000000000444e-01 -1.797231999999999941e+00 2.440688000000000191e+00 -1.614333999999999936e+00 -8.550480000000000302e-01 2.261413999999999813e+00 2.036070000000000102e-01 -6.838999999999999524e-01 3.579999999999999849e-03 1.841695000000000082e+00 2.527799999999999839e-02 -1.493254999999999999e+00 2.017158999999999924e+00 -2.291694999999999816e+00 -4.214470000000000161e-01 2.920894000000000101e+00 -2.666653000000000162e+00 2.952993000000000201e+00 1.525940999999999992e+00 2.402301000000000020e+00 -1.537836999999999898e+00 1.105234000000000050e+00 -2.969339999999999757e-01 8.350130000000000052e-01 1.841741999999999990e+00 7.900179999999999980e-01 8.924969999999999848e-01 3.338569000000000120e+00 1.950793999999999917e+00 8.460119999999999862e-01 -3.461256999999999806e+00 8.452210000000000001e-01 -5.700030000000000374e-01 1.682433999999999985e+00 4.230450000000000044e-01 -1.757781000000000038e+00 -2.050501999999999825e+00 5.459150000000000391e-01 2.097289999999999988e-01 2.372907999999999795e+00 4.518421000000000021e+00