1.044606295500000037e+01 0.000000000000000000e+00 0.000000000000000000e+00 2.423330699999999907e-02 1.086113109100000074e+01 0.000000000000000000e+00 2.171647399999999950e-02 2.252745899999999968e-02 1.041612012100000051e+01
1.029844934900000020e+01 0.000000000000000000e+00 0.000000000000000000e+00 2.389086500000000071e-02 1.070765214500000084e+01 0.000000000000000000e+00 2.140959799999999844e-02 2.220912300000000075e-02 1.026892963799999947e+01
1.042575210899999938e+01 0.000000000000000000e+00 0.000000000000000000e+00 2.418618900000000030e-02 1.084001320499999999e+01 0.000000000000000000e+00 2.167424899999999960e-02 2.248365800000000012e-02 1.039586749400000087e+01
1.044764280000000056e+01 0.000000000000000000e+00 0.000000000000000000e+00 2.423697199999999899e-02 1.086277370900000072e+01 0.000000000000000000e+00 2.171975799999999873e-02 2.253086600000000009e-02 1.041769543600000070e+01
1.049718180800000056e+01 0.000000000000000000e+00 0.000000000000000000e+00 2.435189499999999840e-02 1.091428112100000014e+01 0.000000000000000000e+00 2.182274600000000050e-02 2.263770000000000018e-02 1.046709244500000047e+01
1.039903229099999926e+01 0.000000000000000000e+00 0.000000000000000000e+00 -2.408922399999999936e-02 1.081229090599999942e+01 0.000000000000000000e+00 2.159560699999999930e-02 -2.252914300000000147e-02 1.036920783300000082e+01
1.035841764799999964e+01 0.000000000000000000e+00 0.000000000000000000e+00 -2.399514100000000108e-02 1.077006223200000079e+01 0.000000000000000000e+00 2.151126299999999922e-02 -2.244115199999999893e-02 1.032870967200000045e+01
1.037301539299999931e+01 0.000000000000000000e+00 0.000000000000000000e+00 -2.402895600000000062e-02 1.078524009400000061e+01 0.000000000000000000e+00 2.154157799999999873e-02 -2.247277799999999881e-02 1.034326555100000000e+01
1.048261276000000031e+01 0.000000000000000000e+00 0.000000000000000000e+00 -2.428283700000000156e-02 1.089919287100000034e+01 0.000000000000000000e+00 2.176917800000000014e-02 -2.271021700000000129e-02 1.045254859199999942e+01
1.036296383100000007e+01 0.000000000000000000e+00 0.000000000000000000e+00 -2.400567199999999873e-02 1.077478908099999977e+01 0.000000000000000000e+00 2.152070400000000161e-02 -2.245100200000000115e-02 1.033324281700000036e+01
1.045744906000000007e+01 0.000000000000000000e+00 0.000000000000000000e+00 2.425972100000000145e-02 1.087296961600000067e+01 0.000000000000000000e+00 2.174014499999999891e-02 2.255201399999999870e-02 1.042747358799999979e+01
1.032800952400000050e+01 0.000000000000000000e+00 0.000000000000000000e+00 2.395944100000000146e-02 1.073838687599999986e+01 0.000000000000000000e+00 2.147105100000000141e-02 2.227287099999999964e-02 1.029840508000000021e+01
1.034880370900000024e+01 0.000000000000000000e+00 0.000000000000000000e+00 2.400767999999999999e-02 1.076000730600000033e+01 0.000000000000000000e+00 2.151428000000000021e-02 2.231771499999999839e-02 1.031913966099999946e+01
1.044650794200000021e+01 0.000000000000000000e+00 0.000000000000000000e+00 -2.419920100000000004e-02 1.086165324399999932e+01 0.000000000000000000e+00 2.169420000000000029e-02 -2.263199700000000092e-02 1.041654732399999972e+01
1.037379558599999996e+01 0.000000000000000000e+00 0.000000000000000000e+00 2.406565700000000071e-02 1.078599222000000069e+01 0.000000000000000000e+00 2.156623599999999905e-02 2.237161099999999958e-02 1.034405989999999953e+01
1.035572804999999974e+01 0.000000000000000000e+00 0.000000000000000000e+00 2.402374300000000018e-02 1.076720678200000059e+01 0.000000000000000000e+00 2.152867500000000059e-02 2.233264700000000061e-02 1.032604415399999986e+01
1.035340824300000051e+01 0.000000000000000000e+00 0.000000000000000000e+00 2.401836200000000143e-02 1.076479479800000050e+01 0.000000000000000000e+00 2.152385299999999904e-02 2.232764500000000013e-02 1.032373099600000010e+01
1.038406479800000071e+01 0.000000000000000000e+00 0.000000000000000000e+00 2.408947999999999992e-02 1.079666947399999977e+01 0.000000000000000000e+00 2.158758499999999941e-02 2.239375700000000025e-02 1.035429967700000020e+01
1.034236068200000069e+01 0.000000000000000000e+00 0.000000000000000000e+00 2.399273299999999873e-02 1.075330826899999970e+01 0.000000000000000000e+00 2.150088600000000030e-02 2.230381999999999851e-02 1.031271510200000030e+01
1.046981639700000066e+01 0.000000000000000000e+00 0.000000000000000000e+00 2.428841099999999933e-02 1.088582836199999981e+01 0.000000000000000000e+00 2.176585500000000062e-02 2.257868500000000112e-02 1.043980547500000000e+01
1.043006425199999931e+01 0.000000000000000000e+00 0.000000000000000000e+00 2.419619199999999831e-02 1.084449668899999963e+01 0.000000000000000000e+00 2.168321399999999927e-02 2.249295700000000092e-02 1.040016727599999946e+01
1.043960405900000055e+01 0.000000000000000000e+00 0.000000000000000000e+00 -2.418320800000000118e-02 1.085447500000000076e+01 0.000000000000000000e+00 2.167986300000000061e-02 -2.261704000000000145e-02 1.040966324100000051e+01
1.037464090900000002e+01 0.000000000000000000e+00 0.000000000000000000e+00 -2.403272199999999942e-02 1.078693020699999927e+01 0.000000000000000000e+00 2.154495400000000158e-02 -2.247630000000000114e-02 1.034488640500000045e+01
1.038591129199999941e+01 0.000000000000000000e+00 0.000000000000000000e+00 2.409376400000000015e-02 1.079858933699999923e+01 0.000000000000000000e+00 2.159142400000000142e-02 2.239773899999999984e-02 1.035614087699999963e+01
1.029616667300000010e+01 0.000000000000000000e+00 0.000000000000000000e+00 -2.385093699999999914e-02 1.070533739799999928e+01 0.000000000000000000e+00 2.138198700000000160e-02 -2.230628800000000050e-02 1.026663723399999917e+01
1.027634010699999934e+01 0.000000000000000000e+00 0.000000000000000000e+00 -2.380500899999999850e-02 1.068472292200000062e+01 0.000000000000000000e+00 2.134081300000000014e-02 -2.226333399999999921e-02 1.024686752999999939e+01
1.051704766499999977e+01 0.000000000000000000e+00 0.000000000000000000e+00 2.439798099999999914e-02 1.093493633699999990e+01 0.000000000000000000e+00 2.186404499999999862e-02 2.268054099999999851e-02 1.048690135900000087e+01
1.037476611199999965e+01 0.000000000000000000e+00 0.000000000000000000e+00 -2.403301199999999943e-02 1.078706038600000028e+01 0.000000000000000000e+00 2.154521400000000003e-02 -2.247657100000000074e-02 1.034501124900000057e+01
1.050074467099999964e+01 0.000000000000000000e+00 0.000000000000000000e+00 2.436015999999999876e-02 1.091798555199999932e+01 0.000000000000000000e+00 2.183015300000000145e-02 2.264538300000000157e-02 1.047064509500000007e+01
1.010855294099999924e+01 0.000000000000000000e+00 0.000000000000000000e+00 -2.341633200000000151e-02 1.051026787600000034e+01 0.000000000000000000e+00 2.099237099999999925e-02 -2.189982899999999913e-02 1.007956157799999986e+01
1.038645451200000025e+01 0.000000000000000000e+00 0.000000000000000000e+00 2.409502399999999961e-02 1.079915414100000071e+01 0.000000000000000000e+00 2.159255300000000044e-02 2.239891100000000052e-02 1.035668253999999955e+01
1.038098227100000059e+01 0.000000000000000000e+00 0.000000000000000000e+00 -2.404741100000000117e-02 1.079352357600000012e+01 0.000000000000000000e+00 2.155812299999999848e-02 -2.249003800000000039e-02 1.035120958100000088e+01
1.041924712399999997e+01 0.000000000000000000e+00 0.000000000000000000e+00 2.417109799999999850e-02 1.083324974800000007e+01 0.000000000000000000e+00 2.166072600000000167e-02 2.246963000000000085e-02 1.038938115500000059e+01
1.038715788500000059e+01 0.000000000000000000e+00 0.000000000000000000e+00 -2.406171699999999983e-02 1.079994460900000064e+01 0.000000000000000000e+00 2.157094799999999951e-02 -2.250341700000000125e-02 1.035736748200000079e+01
1.030978539500000046e+01 0.000000000000000000e+00 0.000000000000000000e+00 2.391716300000000170e-02 1.071943862300000028e+01 0.000000000000000000e+00 2.143316400000000108e-02 2.223357000000000111e-02 1.028023319000000058e+01
1.036585030700000054e+01 0.000000000000000000e+00 0.000000000000000000e+00 -2.401235800000000101e-02 1.077779026600000023e+01 0.000000000000000000e+00 2.152669899999999983e-02 -2.245725499999999888e-02 1.033612101399999972e+01
1.028221093800000041e+01 0.000000000000000000e+00 0.000000000000000000e+00 -2.381860900000000100e-02 1.069082706000000016e+01 0.000000000000000000e+00 2.135300500000000129e-02 -2.227605300000000052e-02 1.025272152400000003e+01
1.026891211400000081e+01 0.000000000000000000e+00 0.000000000000000000e+00 2.382234299999999930e-02 1.067694126600000004e+01 0.000000000000000000e+00 2.134819199999999847e-02 2.214542499999999983e-02 1.023947706799999935e+01
1.040302812000000010e+01 0.000000000000000000e+00 0.000000000000000000e+00 2.413347299999999904e-02 1.081638629200000068e+01 0.000000000000000000e+00 2.162700799999999965e-02 2.243465199999999937e-02 1.037320864199999981e+01
1.026573196800000076e+01 0.000000000000000000e+00 0.000000000000000000e+00 -2.378043499999999907e-02 1.067369321400000004e+01 0.000000000000000000e+00 2.131878300000000087e-02 -2.224035200000000143e-02 1.023628981499999924e+01
1.029987559899999994e+01 0.000000000000000000e+00 0.000000000000000000e+00 2.389417400000000066e-02 1.070913506599999998e+01 0.000000000000000000e+00 2.141256299999999904e-02 2.221219899999999844e-02 1.027035179900000017e+01
1.027641113700000020e+01 0.000000000000000000e+00 0.000000000000000000e+00 -2.380517399999999839e-02 1.068479677400000050e+01 0.000000000000000000e+00 2.134096099999999857e-02 -2.226348800000000142e-02 1.024693835599999936e+01
1.035916545299999925e+01 0.000000000000000000e+00 0.000000000000000000e+00 2.403171800000000052e-02 1.077078076799999984e+01 0.000000000000000000e+00 2.153582100000000013e-02 2.234005999999999839e-02 1.032947170299999939e+01
1.037400748499999992e+01 0.000000000000000000e+00 0.000000000000000000e+00 2.406614899999999849e-02 1.078621253899999921e+01 0.000000000000000000e+00 2.156667699999999938e-02 2.237206799999999843e-02 1.034427119200000078e+01
1.039718876100000067e+01 0.000000000000000000e+00 0.000000000000000000e+00 2.411992599999999987e-02 1.081031491000000067e+01 0.000000000000000000e+00 2.161486899999999836e-02 2.242206000000000060e-02 1.036738602099999973e+01
1.032956603000000051e+01 0.000000000000000000e+00 0.000000000000000000e+00 2.396305099999999910e-02 1.074000522899999943e+01 0.000000000000000000e+00 2.147428700000000162e-02 2.227622799999999861e-02 1.029995712500000060e+01
1.040627681299999985e+01 0.000000000000000000e+00 0.000000000000000000e+00 -2.410600599999999927e-02 1.081982332599999985e+01 0.000000000000000000e+00 2.161065200000000103e-02 -2.254483800000000107e-02 1.037643157699999996e+01
1.034619240600000012e+01 0.000000000000000000e+00 0.000000000000000000e+00 2.400162200000000023e-02 1.075729224500000036e+01 0.000000000000000000e+00 2.150885199999999844e-02 2.231208299999999992e-02 1.031653584300000048e+01
1.030685104400000007e+01 0.000000000000000000e+00 0.000000000000000000e+00 -2.387568699999999960e-02 1.071644636699999964e+01 0.000000000000000000e+00 2.140417500000000098e-02 -2.232943500000000164e-02 1.027729096200000036e+01
1.039076843800000027e+01 0.000000000000000000e+00 0.000000000000000000e+00 2.410503199999999846e-02 1.080363947799999913e+01 0.000000000000000000e+00 2.160152099999999853e-02 2.240821399999999922e-02 1.036098410099999967e+01
